/*--------------------------------*- C++ -*----------------------------------*\
| =========                 |                                                 |
| \\      /  F ield         | OpenFOAM: The Open Source CFD Toolbox           |
|  \\    /   O peration     | Version:  2212                                  |
|   \\  /    A nd           | Website:  www.openfoam.com                      |
|    \\/     M anipulation  |                                                 |
\*---------------------------------------------------------------------------*/
FoamFile
{
    version     2.0;
    format      ascii;
    arch        "LSB;label=32;scalar=64";
    class       volScalarField;
    location    "0.09";
    object      alphat;
}
// * * * * * * * * * * * * * * * * * * * * * * * * * * * * * * * * * * * * * //

dimensions      [1 -1 -1 0 0 0 0];

internalField   nonuniform List<scalar> 
3072
(
0.000276825
0.000596373
0.000641204
0.000640694
0.000635962
0.000609789
0.000594667
0.000670294
0.0011639
0.00158057
0.00172138
0.00178547
0.000447999
0.00129519
0.00183736
0.00205927
0.00176455
0.00102704
0.000920682
0.00163346
0.00199921
0.00320732
0.00438559
0.00611871
0.000575638
0.00213613
0.00288199
0.00300724
0.00260274
0.00240813
0.00239218
0.00340095
0.00518065
0.00760804
0.0101725
0.0126533
0.000728748
0.00336266
0.00366501
0.00318665
0.00302363
0.0030485
0.00406099
0.00658492
0.0093283
0.0124281
0.0153645
0.0179629
0.000861813
0.00399531
0.00403628
0.00365444
0.00365206
0.00448208
0.00681558
0.0100766
0.01323
0.0164215
0.0193627
0.0219572
0.000988157
0.0045279
0.00459208
0.00434219
0.00484699
0.00684562
0.00999552
0.0131884
0.0163091
0.0193776
0.0222027
0.0247282
0.00109927
0.00513489
0.00558181
0.00567992
0.00699933
0.00981414
0.0128161
0.0157734
0.0186811
0.021453
0.0240741
0.0264807
0.00123472
0.00648457
0.00771386
0.0087656
0.0109309
0.0133896
0.0158815
0.0183942
0.0209201
0.023327
0.0255951
0.0276889
0.00139662
0.0087968
0.0115657
0.013879
0.0159413
0.0178148
0.0196279
0.0214422
0.0232911
0.0250969
0.0268433
0.0285119
0.00162089
0.0105948
0.0147064
0.0175374
0.019587
0.0211577
0.0225076
0.0237705
0.0249973
0.0262197
0.0274652
0.0287492
0.00183404
0.00989211
0.015872
0.0193198
0.0215935
0.0229959
0.0242696
0.0251785
0.0260061
0.0268336
0.027707
0.0286598
0.00306215
0.00932522
0.0167209
0.0207302
0.0227011
0.0244438
0.0255437
0.0263275
0.0269547
0.0275459
0.0281716
0.0288821
0.00183505
0.00185955
0.00187399
0.00187668
0.00187815
0.00184941
0.00180567
0.00173064
0.00162741
0.0014863
0.00127762
0.00060775
0.00783267
0.0094071
0.0105083
0.0109799
0.0107709
0.010204
0.00922621
0.00788145
0.00609816
0.00372729
0.00182189
0.00105651
0.0147898
0.0164215
0.0174436
0.017841
0.0176251
0.0168463
0.0154507
0.0134199
0.0107145
0.00734001
0.00326982
0.00140862
0.0201635
0.0218886
0.0230878
0.0237254
0.0237539
0.0231114
0.0217051
0.0194107
0.0160281
0.0115726
0.00576692
0.00172175
0.0241903
0.0260232
0.0274209
0.0283421
0.0287161
0.0284173
0.0272692
0.0250238
0.021251
0.0158163
0.00850683
0.00203452
0.0269497
0.0288479
0.0303983
0.0315626
0.0322731
0.0324203
0.0317935
0.030012
0.026498
0.0204466
0.0118219
0.00235631
0.0286341
0.0305287
0.0321578
0.0335021
0.0345339
0.0351841
0.035226
0.0341759
0.0312179
0.0251595
0.015357
0.00269532
0.0296048
0.0313553
0.0329355
0.0343475
0.0356205
0.0367357
0.0375231
0.037476
0.0354884
0.0297205
0.0188159
0.00307079
0.0300655
0.0315101
0.0329348
0.0343416
0.0357422
0.037188
0.0386049
0.039603
0.0389592
0.0340361
0.0220122
0.00348897
0.0300092
0.0311951
0.0324042
0.0337827
0.0353057
0.0369599
0.0387666
0.0405998
0.0413944
0.0381008
0.0257413
0.00393558
0.0297777
0.0310489
0.0321074
0.0332168
0.0347439
0.0365269
0.0384742
0.0406864
0.0425659
0.0415256
0.0302157
0.00443038
0.0297896
0.0311326
0.0323511
0.0333257
0.0345795
0.036291
0.0381307
0.0403123
0.0425851
0.0434972
0.0349312
0.00500371
0.000276826
0.000596375
0.000641205
0.000640695
0.000635963
0.00060979
0.000594668
0.000670296
0.00116391
0.00158058
0.00172139
0.00178547
0.000448001
0.00129519
0.00183736
0.00205927
0.00176454
0.00102703
0.000920686
0.00163346
0.00199921
0.00320734
0.00438562
0.00611874
0.00057564
0.00213613
0.00288199
0.00300722
0.00260272
0.00240812
0.00239219
0.00340098
0.00518068
0.00760809
0.0101726
0.0126534
0.000728751
0.00336267
0.00366501
0.00318664
0.00302363
0.00304851
0.00406103
0.00658498
0.00932836
0.0124282
0.0153645
0.017963
0.000861816
0.00399532
0.00403628
0.00365445
0.00365207
0.00448211
0.00681565
0.0100767
0.0132301
0.0164216
0.0193628
0.0219573
0.000988159
0.00452791
0.00459209
0.00434221
0.00484702
0.00684571
0.00999561
0.0131884
0.0163092
0.0193777
0.0222028
0.0247283
0.00109927
0.00513491
0.00558184
0.00567998
0.00699943
0.00981425
0.0128162
0.0157735
0.0186812
0.0214531
0.0240743
0.0264808
0.00123473
0.0064846
0.00771392
0.00876569
0.010931
0.0133897
0.0158816
0.0183944
0.0209202
0.0233271
0.0255952
0.0276891
0.00139662
0.00879682
0.0115657
0.013879
0.0159414
0.0178149
0.0196281
0.0214423
0.0232913
0.025097
0.0268434
0.028512
0.00162089
0.0105948
0.0147064
0.0175374
0.019587
0.0211578
0.0225077
0.0237705
0.0249974
0.0262197
0.0274653
0.0287493
0.00183404
0.00989212
0.015872
0.0193198
0.0215935
0.0229959
0.0242696
0.0251785
0.0260062
0.0268336
0.0277071
0.0286598
0.00306215
0.00932522
0.0167209
0.0207302
0.0227011
0.0244438
0.0255437
0.0263276
0.0269547
0.0275459
0.0281716
0.0288822
0.00183506
0.00185956
0.00187399
0.00187668
0.00187816
0.00184941
0.00180567
0.00173064
0.00162741
0.0014863
0.00127763
0.000607751
0.0078327
0.00940713
0.0105083
0.0109799
0.0107709
0.010204
0.00922623
0.00788147
0.00609817
0.0037273
0.00182189
0.00105651
0.0147899
0.0164215
0.0174437
0.0178411
0.0176251
0.0168463
0.0154507
0.0134199
0.0107145
0.00734002
0.00326983
0.00140862
0.0201636
0.0218887
0.0230879
0.0237254
0.0237539
0.0231115
0.0217051
0.0194107
0.0160281
0.0115726
0.00576693
0.00172175
0.0241904
0.0260233
0.027421
0.0283422
0.0287162
0.0284174
0.0272692
0.0250239
0.021251
0.0158163
0.00850684
0.00203452
0.0269498
0.028848
0.0303984
0.0315627
0.0322732
0.0324204
0.0317935
0.030012
0.026498
0.0204466
0.0118219
0.00235631
0.0286342
0.0305288
0.0321579
0.0335022
0.034534
0.0351842
0.0352261
0.034176
0.031218
0.0251595
0.015357
0.00269532
0.0296049
0.0313554
0.0329356
0.0343476
0.0356206
0.0367358
0.0375232
0.037476
0.0354884
0.0297206
0.0188159
0.00307079
0.0300656
0.0315102
0.032935
0.0343417
0.0357423
0.0371882
0.038605
0.0396031
0.0389593
0.0340362
0.0220123
0.00348897
0.0300093
0.0311952
0.0324043
0.0337828
0.0353058
0.03696
0.0387667
0.0405999
0.0413945
0.0381009
0.0257414
0.00393558
0.0297778
0.0310489
0.0321075
0.0332169
0.034744
0.036527
0.0384743
0.0406865
0.042566
0.0415257
0.0302157
0.00443038
0.0297896
0.0311327
0.0323511
0.0333257
0.0345795
0.0362911
0.0381307
0.0403124
0.0425852
0.0434972
0.0349312
0.00500372
0.000276826
0.000596376
0.000641207
0.000640697
0.000635965
0.000609792
0.00059467
0.000670297
0.00116391
0.00158058
0.00172138
0.00178547
0.000448001
0.00129519
0.00183737
0.00205928
0.00176456
0.00102704
0.000920688
0.00163346
0.00199922
0.00320734
0.00438562
0.00611874
0.000575642
0.00213614
0.00288201
0.00300724
0.00260274
0.00240813
0.00239219
0.00340098
0.00518068
0.00760809
0.0101726
0.0126534
0.000728753
0.00336268
0.00366503
0.00318666
0.00302364
0.00304851
0.00406103
0.00658499
0.00932837
0.0124282
0.0153645
0.017963
0.000861817
0.00399534
0.0040363
0.00365447
0.00365208
0.00448212
0.00681566
0.0100767
0.0132301
0.0164216
0.0193628
0.0219573
0.000988161
0.00452793
0.00459211
0.00434223
0.00484703
0.00684572
0.00999563
0.0131885
0.0163092
0.0193777
0.0222028
0.0247283
0.00109927
0.00513492
0.00558186
0.00567999
0.00699944
0.00981427
0.0128162
0.0157735
0.0186812
0.0214532
0.0240743
0.0264808
0.00123473
0.00648461
0.00771394
0.00876571
0.010931
0.0133897
0.0158816
0.0183944
0.0209203
0.0233271
0.0255952
0.0276891
0.00139662
0.00879683
0.0115658
0.0138791
0.0159414
0.0178149
0.0196281
0.0214423
0.0232913
0.025097
0.0268434
0.028512
0.00162089
0.0105948
0.0147065
0.0175374
0.019587
0.0211578
0.0225077
0.0237706
0.0249974
0.0262198
0.0274653
0.0287493
0.00183404
0.00989212
0.015872
0.0193199
0.0215935
0.022996
0.0242697
0.0251786
0.0260062
0.0268336
0.0277071
0.0286599
0.00306215
0.00932523
0.0167209
0.0207303
0.0227012
0.0244438
0.0255437
0.0263276
0.0269547
0.0275459
0.0281717
0.0288822
0.00183506
0.00185956
0.00187399
0.00187668
0.00187816
0.00184941
0.00180567
0.00173064
0.00162741
0.0014863
0.00127762
0.00060775
0.0078327
0.00940713
0.0105083
0.0109799
0.0107709
0.010204
0.00922623
0.00788146
0.00609817
0.00372729
0.00182189
0.00105651
0.0147899
0.0164215
0.0174437
0.0178411
0.0176251
0.0168463
0.0154507
0.0134199
0.0107145
0.00734001
0.00326983
0.00140862
0.0201636
0.0218887
0.0230879
0.0237254
0.0237539
0.0231115
0.0217051
0.0194107
0.0160281
0.0115726
0.00576693
0.00172175
0.0241904
0.0260233
0.027421
0.0283422
0.0287162
0.0284174
0.0272692
0.0250239
0.021251
0.0158163
0.00850684
0.00203452
0.0269498
0.028848
0.0303983
0.0315627
0.0322732
0.0324204
0.0317935
0.030012
0.026498
0.0204466
0.0118219
0.00235631
0.0286342
0.0305288
0.0321579
0.0335022
0.034534
0.0351841
0.0352261
0.034176
0.031218
0.0251595
0.015357
0.00269532
0.0296049
0.0313554
0.0329356
0.0343476
0.0356206
0.0367358
0.0375231
0.037476
0.0354884
0.0297206
0.0188159
0.00307079
0.0300656
0.0315102
0.032935
0.0343417
0.0357423
0.0371881
0.038605
0.0396031
0.0389593
0.0340362
0.0220123
0.00348897
0.0300093
0.0311952
0.0324043
0.0337828
0.0353058
0.03696
0.0387666
0.0405998
0.0413945
0.0381009
0.0257414
0.00393558
0.0297778
0.031049
0.0321075
0.0332169
0.034744
0.036527
0.0384743
0.0406865
0.0425659
0.0415257
0.0302157
0.00443038
0.0297896
0.0311327
0.0323512
0.0333257
0.0345795
0.0362911
0.0381307
0.0403124
0.0425851
0.0434972
0.0349312
0.00500371
0.000276825
0.000596374
0.000641204
0.000640694
0.000635962
0.000609789
0.000594667
0.000670294
0.0011639
0.00158057
0.00172138
0.00178547
0.000448
0.00129519
0.00183736
0.00205927
0.00176455
0.00102703
0.000920681
0.00163346
0.00199921
0.00320733
0.0043856
0.00611872
0.000575639
0.00213613
0.00288199
0.00300723
0.00260273
0.00240812
0.00239218
0.00340096
0.00518066
0.00760806
0.0101725
0.0126533
0.00072875
0.00336267
0.00366501
0.00318664
0.00302363
0.0030485
0.00406101
0.00658495
0.00932833
0.0124282
0.0153645
0.017963
0.000861814
0.00399532
0.00403628
0.00365445
0.00365207
0.0044821
0.00681562
0.0100767
0.0132301
0.0164215
0.0193627
0.0219572
0.000988158
0.00452791
0.00459208
0.0043422
0.00484701
0.00684567
0.00999557
0.0131884
0.0163091
0.0193777
0.0222027
0.0247282
0.00109927
0.0051349
0.00558183
0.00567996
0.0069994
0.00981421
0.0128161
0.0157734
0.0186812
0.0214531
0.0240742
0.0264808
0.00123473
0.00648459
0.0077139
0.00876567
0.010931
0.0133896
0.0158816
0.0183943
0.0209202
0.0233271
0.0255952
0.027689
0.00139662
0.00879681
0.0115657
0.013879
0.0159414
0.0178149
0.019628
0.0214423
0.0232912
0.025097
0.0268433
0.0285119
0.00162089
0.0105948
0.0147064
0.0175374
0.019587
0.0211577
0.0225077
0.0237705
0.0249973
0.0262197
0.0274653
0.0287493
0.00183404
0.00989211
0.015872
0.0193198
0.0215935
0.0229959
0.0242696
0.0251785
0.0260062
0.0268336
0.0277071
0.0286598
0.00306215
0.00932522
0.0167209
0.0207302
0.0227011
0.0244438
0.0255437
0.0263276
0.0269547
0.0275459
0.0281716
0.0288822
0.00183505
0.00185955
0.00187399
0.00187668
0.00187815
0.00184941
0.00180567
0.00173064
0.00162741
0.0014863
0.00127762
0.00060775
0.00783268
0.00940711
0.0105083
0.0109799
0.0107709
0.010204
0.00922622
0.00788146
0.00609816
0.00372729
0.00182189
0.00105651
0.0147898
0.0164215
0.0174436
0.0178411
0.0176251
0.0168463
0.0154507
0.0134199
0.0107145
0.00734001
0.00326983
0.00140862
0.0201636
0.0218886
0.0230879
0.0237254
0.0237539
0.0231114
0.0217051
0.0194107
0.0160281
0.0115726
0.00576692
0.00172175
0.0241903
0.0260232
0.027421
0.0283421
0.0287162
0.0284173
0.0272692
0.0250239
0.021251
0.0158163
0.00850684
0.00203452
0.0269498
0.028848
0.0303983
0.0315627
0.0322731
0.0324204
0.0317935
0.030012
0.026498
0.0204466
0.0118219
0.00235631
0.0286342
0.0305288
0.0321578
0.0335022
0.034534
0.0351841
0.035226
0.034176
0.0312179
0.0251595
0.015357
0.00269532
0.0296049
0.0313553
0.0329356
0.0343475
0.0356206
0.0367358
0.0375231
0.037476
0.0354884
0.0297205
0.0188159
0.00307079
0.0300656
0.0315102
0.0329349
0.0343416
0.0357423
0.0371881
0.0386049
0.0396031
0.0389593
0.0340362
0.0220123
0.00348897
0.0300093
0.0311952
0.0324043
0.0337828
0.0353058
0.03696
0.0387666
0.0405998
0.0413945
0.0381008
0.0257413
0.00393558
0.0297778
0.0310489
0.0321075
0.0332168
0.0347439
0.036527
0.0384742
0.0406865
0.0425659
0.0415256
0.0302157
0.00443038
0.0297896
0.0311326
0.0323511
0.0333257
0.0345795
0.036291
0.0381307
0.0403124
0.0425851
0.0434972
0.0349311
0.00500371
0.018467
0.0191576
0.0208775
0.0227039
0.0242971
0.025779
0.0267587
0.0274732
0.02801
0.0284984
0.0290014
0.0295725
0.0298237
0.0271936
0.0263506
0.0264355
0.0269571
0.0274867
0.0279971
0.0286518
0.0292429
0.0297177
0.0301811
0.0306942
0.0376579
0.034664
0.0324927
0.0312087
0.0305902
0.0303339
0.0304209
0.0306101
0.030821
0.0310762
0.0315663
0.032157
0.0400168
0.0379464
0.0360515
0.0344799
0.0334593
0.0328441
0.0325718
0.0324813
0.0326898
0.032962
0.0333545
0.0339605
0.0304075
0.0317334
0.0329984
0.0339878
0.0351195
0.0365626
0.038101
0.0399252
0.0421045
0.0446836
0.0448743
0.0207307
0.0316418
0.0328941
0.0340499
0.0351031
0.0362189
0.0372359
0.0383764
0.0396681
0.0413531
0.043761
0.0479704
0.0347189
0.0333147
0.0342914
0.0353001
0.0362031
0.0370977
0.0378741
0.0387893
0.039711
0.0408217
0.0424869
0.0463557
0.0414093
0.0351791
0.0360362
0.0368332
0.0375616
0.0381342
0.0387148
0.039373
0.0399643
0.0407047
0.0415607
0.0436377
0.0423979
0.018467
0.0191576
0.0208775
0.0227039
0.0242971
0.025779
0.0267587
0.0274732
0.02801
0.0284984
0.0290015
0.0295726
0.0298236
0.0271936
0.0263507
0.0264355
0.0269571
0.0274867
0.0279972
0.0286519
0.029243
0.0297177
0.0301811
0.0306942
0.0376579
0.0346641
0.0324927
0.0312088
0.0305902
0.0303339
0.0304209
0.0306101
0.030821
0.0310762
0.0315664
0.032157
0.0400169
0.0379465
0.0360516
0.03448
0.0334594
0.0328442
0.0325719
0.0324813
0.0326899
0.032962
0.0333545
0.0339605
0.0304075
0.0317335
0.0329984
0.0339878
0.0351196
0.0365626
0.0381011
0.0399253
0.0421045
0.0446837
0.0448743
0.0207308
0.0316418
0.0328941
0.0340499
0.0351031
0.0362189
0.037236
0.0383764
0.0396682
0.0413531
0.043761
0.0479704
0.0347189
0.0333147
0.0342914
0.0353002
0.0362031
0.0370977
0.0378742
0.0387894
0.0397111
0.0408217
0.0424869
0.0463557
0.0414093
0.0351791
0.0360362
0.0368333
0.0375616
0.0381342
0.0387149
0.039373
0.0399643
0.0407048
0.0415608
0.0436378
0.042398
0.0184671
0.0191576
0.0208775
0.0227039
0.0242971
0.025779
0.0267587
0.0274733
0.02801
0.0284984
0.0290015
0.0295726
0.0298237
0.0271937
0.0263507
0.0264356
0.0269572
0.0274867
0.0279972
0.0286519
0.029243
0.0297178
0.0301811
0.0306942
0.037658
0.0346641
0.0324928
0.0312088
0.0305903
0.0303339
0.0304209
0.0306102
0.0308211
0.0310762
0.0315664
0.032157
0.0400169
0.0379465
0.0360516
0.0344801
0.0334594
0.0328442
0.0325719
0.0324813
0.0326899
0.032962
0.0333545
0.0339605
0.0304075
0.0317335
0.0329984
0.0339878
0.0351195
0.0365626
0.0381011
0.0399252
0.0421045
0.0446837
0.0448743
0.0207307
0.0316418
0.0328941
0.0340499
0.0351031
0.0362189
0.0372359
0.0383764
0.0396682
0.0413531
0.043761
0.0479704
0.0347189
0.0333147
0.0342914
0.0353002
0.0362031
0.0370977
0.0378741
0.0387893
0.039711
0.0408217
0.0424869
0.0463557
0.0414093
0.0351791
0.0360362
0.0368332
0.0375616
0.0381342
0.0387148
0.039373
0.0399643
0.0407047
0.0415607
0.0436377
0.0423979
0.018467
0.0191576
0.0208775
0.0227039
0.0242971
0.025779
0.0267587
0.0274732
0.02801
0.0284984
0.0290015
0.0295726
0.0298236
0.0271936
0.0263507
0.0264356
0.0269571
0.0274867
0.0279972
0.0286519
0.029243
0.0297178
0.0301811
0.0306942
0.0376579
0.0346641
0.0324928
0.0312088
0.0305902
0.0303339
0.0304209
0.0306101
0.030821
0.0310762
0.0315664
0.032157
0.0400169
0.0379465
0.0360516
0.03448
0.0334594
0.0328442
0.0325719
0.0324813
0.0326899
0.032962
0.0333545
0.0339605
0.0304075
0.0317334
0.0329984
0.0339878
0.0351195
0.0365626
0.0381011
0.0399252
0.0421045
0.0446836
0.0448743
0.0207307
0.0316418
0.0328941
0.0340499
0.0351031
0.0362189
0.0372359
0.0383764
0.0396681
0.0413531
0.0437609
0.0479703
0.0347188
0.0333147
0.0342914
0.0353001
0.0362031
0.0370977
0.0378741
0.0387893
0.039711
0.0408217
0.0424869
0.0463557
0.0414091
0.0351791
0.0360361
0.0368332
0.0375616
0.0381342
0.0387148
0.0393729
0.0399642
0.0407047
0.0415607
0.0436377
0.0423978
0.0372535
0.0359119
0.0347888
0.0340462
0.033629
0.0334692
0.0334071
0.0334826
0.0338424
0.0343252
0.0351544
0.0364167
0.0354379
0.0345776
0.0338857
0.0334869
0.0332417
0.0330126
0.0327315
0.0325897
0.0325081
0.0325535
0.0330188
0.0342526
0.033683
0.0330167
0.0324908
0.0320759
0.0315136
0.0308084
0.0300809
0.0292249
0.0282347
0.0272448
0.0266296
0.0272539
0.0315145
0.0309202
0.0301688
0.0293493
0.0282672
0.0270228
0.0255412
0.0237369
0.0216491
0.0194324
0.0174671
0.0163403
0.0379832
0.0390088
0.0390904
0.0393645
0.0395539
0.0397848
0.0400047
0.0401918
0.0403829
0.0405797
0.0401029
0.039036
0.036242
0.0391758
0.0389826
0.0390443
0.0390999
0.0391546
0.0391833
0.0391464
0.0389253
0.0384393
0.0378233
0.0367446
0.0302552
0.0371184
0.0376538
0.0376941
0.0377187
0.0377122
0.0376437
0.0373297
0.0368785
0.0364078
0.0357814
0.0346506
0.0174023
0.0336443
0.0357198
0.0358144
0.0358347
0.0357151
0.0354437
0.0350247
0.0346808
0.0342063
0.0334319
0.0323642
0.0372536
0.035912
0.0347889
0.0340462
0.033629
0.0334692
0.0334071
0.0334826
0.0338424
0.0343252
0.0351544
0.0364167
0.035438
0.0345776
0.0338858
0.033487
0.0332418
0.0330126
0.0327315
0.0325897
0.0325082
0.0325535
0.0330188
0.0342526
0.033683
0.0330168
0.0324909
0.0320759
0.0315137
0.0308084
0.0300809
0.029225
0.0282347
0.0272448
0.0266296
0.0272539
0.0315145
0.0309202
0.0301689
0.0293493
0.0282672
0.0270228
0.0255413
0.0237369
0.0216491
0.0194324
0.0174672
0.0163403
0.0379832
0.0390088
0.0390905
0.0393645
0.039554
0.0397848
0.0400048
0.0401919
0.0403829
0.0405797
0.0401029
0.039036
0.036242
0.0391758
0.0389826
0.0390443
0.0390999
0.0391546
0.0391833
0.0391464
0.0389253
0.0384393
0.0378233
0.0367447
0.0302552
0.0371184
0.0376538
0.0376941
0.0377187
0.0377122
0.0376437
0.0373297
0.0368786
0.0364078
0.0357814
0.0346506
0.0174023
0.0336443
0.0357198
0.0358144
0.0358347
0.0357151
0.0354437
0.0350247
0.0346809
0.0342063
0.0334319
0.0323642
0.0372537
0.035912
0.0347889
0.0340462
0.033629
0.0334692
0.0334071
0.0334826
0.0338424
0.0343252
0.0351544
0.0364167
0.035438
0.0345776
0.0338858
0.033487
0.0332418
0.0330126
0.0327315
0.0325897
0.0325081
0.0325535
0.0330188
0.0342526
0.033683
0.0330168
0.0324909
0.0320759
0.0315136
0.0308084
0.0300809
0.0292249
0.0282347
0.0272448
0.0266296
0.0272539
0.0315145
0.0309202
0.0301688
0.0293493
0.0282672
0.0270228
0.0255412
0.0237369
0.0216491
0.0194324
0.0174671
0.0163403
0.0379832
0.0390088
0.0390904
0.0393645
0.0395539
0.0397848
0.0400047
0.0401919
0.0403829
0.0405797
0.0401029
0.039036
0.036242
0.0391757
0.0389826
0.0390443
0.0390999
0.0391546
0.0391833
0.0391464
0.0389253
0.0384393
0.0378233
0.0367446
0.0302552
0.0371184
0.0376537
0.0376941
0.0377187
0.0377122
0.0376437
0.0373297
0.0368785
0.0364078
0.0357814
0.0346506
0.0174023
0.0336442
0.0357198
0.0358144
0.0358347
0.035715
0.0354437
0.0350246
0.0346808
0.0342063
0.0334319
0.0323641
0.0372536
0.035912
0.0347889
0.0340462
0.033629
0.0334692
0.0334071
0.0334826
0.0338424
0.0343252
0.0351544
0.0364167
0.035438
0.0345776
0.0338858
0.033487
0.0332417
0.0330126
0.0327315
0.0325897
0.0325081
0.0325535
0.0330188
0.0342526
0.033683
0.0330168
0.0324909
0.0320759
0.0315136
0.0308084
0.0300809
0.0292249
0.0282347
0.0272448
0.0266296
0.0272539
0.0315145
0.0309202
0.0301688
0.0293493
0.0282672
0.0270228
0.0255412
0.0237368
0.021649
0.0194324
0.0174671
0.0163403
0.0379832
0.0390088
0.0390904
0.0393644
0.0395539
0.0397847
0.0400047
0.0401918
0.0403828
0.0405796
0.0401029
0.039036
0.036242
0.0391757
0.0389826
0.0390442
0.0390999
0.0391546
0.0391833
0.0391464
0.0389252
0.0384392
0.0378233
0.0367447
0.0302552
0.0371184
0.0376537
0.0376941
0.0377187
0.0377122
0.0376436
0.0373297
0.0368785
0.0364077
0.0357814
0.0346506
0.0174023
0.0336442
0.0357198
0.0358144
0.0358347
0.035715
0.0354437
0.0350246
0.0346808
0.0342062
0.0334318
0.0323642
0.0287458
0.0278724
0.0267289
0.0254489
0.0238791
0.0220195
0.019773
0.0170881
0.0139711
0.0105201
0.00642607
0.00332622
0.0251329
0.0238996
0.0223988
0.0206778
0.0186175
0.0162073
0.0133779
0.0101387
0.00646096
0.00313897
0.00145067
0.0014117
0.0207688
0.0191727
0.0172892
0.0151185
0.0125749
0.00966054
0.00622783
0.00280477
0.000878148
0.000446739
0.00047468
0.000603203
0.015712
0.0137363
0.011453
0.00882546
0.00569667
0.00252316
0.000625122
0.000232717
0.000198196
0.000313003
0.000268356
0.000292439
0.0100328
0.00763643
0.00484517
0.00211047
0.000543072
0.000217656
0.000202255
0.00025952
0.000241311
0.000239735
0.000235113
0.00023126
0.00369328
0.00153991
0.000468768
0.000348671
0.000231578
0.000252081
0.000248026
0.000245428
0.000243854
0.000240686
0.000239
0.000237015
0.000363792
0.000930809
0.00024836
0.000257315
0.000256244
0.00025474
0.000253188
0.0002509
0.000248374
0.000246451
0.000245368
0.000243836
0.000260661
0.000266254
0.000262163
0.000262066
0.000261361
0.000260304
0.00025865
0.000256546
0.000254524
0.000253049
0.00025208
0.000250724
0.000266227
0.000265624
0.000265181
0.000264779
0.000264289
0.000263646
0.000262732
0.000261532
0.00026006
0.000258451
0.000257039
0.000255962
0.000263228
0.000263094
0.000263
0.000262981
0.000262815
0.000262504
0.000261866
0.000260932
0.00025968
0.000258287
0.000256982
0.000256008
0.000224442
0.000226178
0.000228304
0.000230131
0.000232131
0.000233824
0.000235472
0.000236955
0.000238394
0.000239837
0.000241437
0.000242691
7.21543e-05
7.11564e-05
7.12699e-05
7.04919e-05
7.05784e-05
6.99855e-05
7.00658e-05
6.96815e-05
6.97686e-05
6.96478e-05
6.97425e-05
6.98219e-05
0.0051016
0.0290857
0.0335217
0.0335312
0.0334553
0.0331502
0.0328183
0.0325488
0.0321885
0.0316033
0.0306506
0.0296314
0.00490773
0.0267135
0.0311289
0.030741
0.0305279
0.0302624
0.0300482
0.0297635
0.0292407
0.0284019
0.0273379
0.0262227
0.00477946
0.0244044
0.0280425
0.0276111
0.0274258
0.0272465
0.0269367
0.026447
0.025656
0.0245672
0.0234027
0.0221425
0.00463558
0.0218261
0.0245493
0.024394
0.0241858
0.0238162
0.0233267
0.0224916
0.0214393
0.0202333
0.018903
0.0174093
0.00444977
0.0190625
0.0210951
0.0209277
0.0205477
0.019912
0.019054
0.0180168
0.0168033
0.0154078
0.0138457
0.0120672
0.00418819
0.0162373
0.0177103
0.0170972
0.0163915
0.0154714
0.0144216
0.0131515
0.0117674
0.0101374
0.0082766
0.00609993
0.0038692
0.012758
0.0139893
0.0125794
0.0119647
0.0107084
0.00950254
0.00789384
0.00622306
0.00427302
0.00247741
0.000971152
0.00344625
0.00897401
0.00979799
0.00782845
0.00723762
0.00538813
0.00416352
0.00247513
0.00138042
0.000517887
0.000287177
0.000576584
0.00280858
0.0044323
0.00488752
0.00291422
0.00253973
0.00106167
0.000750949
0.000410989
0.0002753
0.000284708
0.000264772
0.000268243
0.00208744
0.00103408
0.00119585
0.00047401
0.00043067
0.000331075
0.000259541
0.00025771
0.000264185
0.000263585
0.000264133
0.00026362
0.0013584
0.000181826
0.000220117
0.000183772
0.000198947
0.000195406
0.000210827
0.000211338
0.000214931
0.000217673
0.000220153
0.000221941
0.00047134
8.7839e-05
8.52561e-05
8.07647e-05
8.00327e-05
7.71425e-05
7.71579e-05
7.45326e-05
7.49083e-05
7.30563e-05
7.33143e-05
7.19842e-05
0.0287458
0.0278725
0.026729
0.0254489
0.0238792
0.0220196
0.0197731
0.0170881
0.0139712
0.0105201
0.00642607
0.00332622
0.0251329
0.0238996
0.0223988
0.0206778
0.0186175
0.0162073
0.0133779
0.0101387
0.00646097
0.00313897
0.00145068
0.0014117
0.0207688
0.0191728
0.0172893
0.0151186
0.0125749
0.00966056
0.00622786
0.00280478
0.000878154
0.000446744
0.000474683
0.000603206
0.015712
0.0137363
0.0114531
0.00882549
0.00569671
0.00252319
0.000625132
0.000232723
0.0001982
0.000313008
0.000268361
0.000292443
0.0100328
0.00763646
0.0048452
0.00211049
0.000543081
0.00021766
0.000202255
0.000259522
0.000241313
0.000239738
0.000235116
0.000231264
0.00369331
0.00153992
0.000468776
0.000348722
0.000231576
0.00025208
0.000248025
0.000245427
0.000243855
0.000240686
0.000238999
0.000237015
0.000363781
0.000930951
0.000248357
0.000257314
0.000256242
0.000254739
0.000253187
0.000250899
0.000248373
0.00024645
0.000245366
0.000243835
0.000260659
0.000266253
0.000262162
0.000262065
0.00026136
0.000260302
0.000258648
0.000256545
0.000254523
0.000253048
0.000252079
0.000250723
0.000266226
0.000265623
0.00026518
0.000264778
0.000264288
0.000263645
0.000262731
0.000261531
0.000260059
0.000258451
0.000257038
0.000255961
0.000263228
0.000263094
0.000262999
0.00026298
0.000262815
0.000262503
0.000261866
0.000260931
0.000259679
0.000258287
0.000256981
0.000256007
0.000224439
0.000226178
0.000228304
0.000230131
0.000232131
0.000233824
0.000235472
0.000236955
0.000238394
0.000239837
0.000241437
0.000242691
7.21542e-05
7.11563e-05
7.12698e-05
7.04918e-05
7.05783e-05
6.99854e-05
7.00658e-05
6.96814e-05
6.97685e-05
6.96477e-05
6.97424e-05
6.98218e-05
0.0051016
0.0290857
0.0335217
0.0335312
0.0334553
0.0331502
0.0328183
0.0325488
0.0321885
0.0316033
0.0306506
0.0296314
0.00490773
0.0267135
0.0311289
0.030741
0.0305279
0.0302624
0.0300482
0.0297635
0.0292407
0.0284019
0.0273379
0.0262227
0.00477946
0.0244044
0.0280424
0.027611
0.0274258
0.0272465
0.0269367
0.026447
0.025656
0.0245672
0.0234027
0.0221424
0.00463558
0.021826
0.0245493
0.024394
0.0241857
0.0238162
0.0233266
0.0224916
0.0214393
0.0202333
0.018903
0.0174093
0.00444976
0.0190625
0.0210951
0.0209276
0.0205477
0.0199119
0.0190539
0.0180168
0.0168033
0.0154078
0.0138456
0.0120672
0.00418819
0.0162373
0.0177102
0.0170971
0.0163914
0.0154713
0.0144215
0.0131515
0.0117673
0.0101374
0.00827656
0.00609989
0.00386919
0.0127579
0.0139893
0.0125794
0.0119647
0.0107083
0.00950248
0.00789378
0.006223
0.00427297
0.00247737
0.000971134
0.00344624
0.00897396
0.00979793
0.00782838
0.00723754
0.00538805
0.00416346
0.00247507
0.00138039
0.000517871
0.000287178
0.000576566
0.00280857
0.00443223
0.00488745
0.00291415
0.00253967
0.00106164
0.000750928
0.000410992
0.000275299
0.000284707
0.000264773
0.000268243
0.00208743
0.00103406
0.00119582
0.000473998
0.000430659
0.000331073
0.000259542
0.000257711
0.000264186
0.000263586
0.000264133
0.00026362
0.00135839
0.000181824
0.000220115
0.000183772
0.000198948
0.000195407
0.000210828
0.000211338
0.000214931
0.000217674
0.000220154
0.000221942
0.000471336
8.78392e-05
8.5256e-05
8.07647e-05
8.00328e-05
7.71426e-05
7.7158e-05
7.45327e-05
7.49084e-05
7.30564e-05
7.33144e-05
7.19843e-05
0.0287458
0.0278724
0.0267289
0.0254489
0.0238791
0.0220195
0.019773
0.0170881
0.0139711
0.0105201
0.00642607
0.00332622
0.0251329
0.0238996
0.0223988
0.0206778
0.0186175
0.0162073
0.0133779
0.0101387
0.00646096
0.00313897
0.00145067
0.0014117
0.0207688
0.0191727
0.0172892
0.0151185
0.0125749
0.00966053
0.00622783
0.00280477
0.000878152
0.000446743
0.000474683
0.000603205
0.015712
0.0137363
0.011453
0.00882545
0.00569667
0.00252316
0.000625126
0.000232724
0.000198202
0.000313006
0.000268362
0.000292443
0.0100328
0.00763642
0.00484516
0.00211047
0.000543072
0.000217657
0.000202259
0.000259523
0.000241314
0.000239739
0.000235117
0.000231264
0.00369327
0.0015399
0.00046877
0.000348725
0.000231577
0.00025208
0.000248025
0.000245427
0.000243855
0.000240687
0.000239
0.000237015
0.000363777
0.000930953
0.000248359
0.000257315
0.000256243
0.000254739
0.000253187
0.000250899
0.000248374
0.00024645
0.000245367
0.000243836
0.00026066
0.000266253
0.000262163
0.000262066
0.000261361
0.000260303
0.000258649
0.000256545
0.000254524
0.000253049
0.000252079
0.000250724
0.000266227
0.000265624
0.000265181
0.000264779
0.000264289
0.000263646
0.000262732
0.000261532
0.00026006
0.000258451
0.000257039
0.000255962
0.000263228
0.000263094
0.000263
0.000262981
0.000262815
0.000262504
0.000261867
0.000260932
0.00025968
0.000258288
0.000256982
0.000256008
0.00022444
0.000226179
0.000228305
0.000230131
0.000232131
0.000233824
0.000235473
0.000236956
0.000238394
0.000239837
0.000241438
0.000242692
7.21544e-05
7.11565e-05
7.127e-05
7.0492e-05
7.05785e-05
6.99856e-05
7.0066e-05
6.96816e-05
6.97687e-05
6.96479e-05
6.97426e-05
6.98221e-05
0.0051016
0.0290857
0.0335216
0.0335311
0.0334553
0.0331502
0.0328182
0.0325488
0.0321885
0.0316033
0.0306506
0.0296314
0.00490773
0.0267135
0.0311289
0.030741
0.0305279
0.0302624
0.0300481
0.0297634
0.0292407
0.0284019
0.0273378
0.0262226
0.00477946
0.0244044
0.0280424
0.027611
0.0274258
0.0272465
0.0269367
0.026447
0.025656
0.0245671
0.0234026
0.0221424
0.00463557
0.021826
0.0245493
0.024394
0.0241857
0.0238162
0.0233266
0.0224916
0.0214393
0.0202333
0.018903
0.0174093
0.00444976
0.0190625
0.0210951
0.0209276
0.0205477
0.0199119
0.0190539
0.0180167
0.0168032
0.0154078
0.0138456
0.0120671
0.00418819
0.0162373
0.0177102
0.0170971
0.0163914
0.0154713
0.0144215
0.0131515
0.0117673
0.0101374
0.00827655
0.00609988
0.00386919
0.0127579
0.0139893
0.0125794
0.0119647
0.0107083
0.00950248
0.00789377
0.006223
0.00427297
0.00247737
0.000971135
0.00344624
0.00897396
0.00979792
0.00782837
0.00723754
0.00538805
0.00416345
0.00247507
0.00138039
0.000517865
0.000287183
0.00057656
0.00280857
0.00443222
0.00488744
0.00291415
0.00253966
0.00106164
0.000750929
0.000410991
0.000275299
0.000284708
0.000264773
0.000268243
0.00208743
0.00103405
0.00119582
0.000473997
0.000430659
0.000331072
0.000259542
0.000257711
0.000264186
0.000263586
0.000264133
0.00026362
0.00135839
0.000181823
0.000220115
0.000183772
0.000198947
0.000195407
0.000210827
0.000211338
0.000214931
0.000217673
0.000220154
0.000221941
0.000471338
8.78394e-05
8.5256e-05
8.07648e-05
8.00329e-05
7.71426e-05
7.71581e-05
7.45327e-05
7.49084e-05
7.30564e-05
7.33144e-05
7.19843e-05
0.0287457
0.0278724
0.0267289
0.0254489
0.0238791
0.0220195