/*--------------------------------*- C++ -*----------------------------------*\
| =========                 |                                                 |
| \\      /  F ield         | OpenFOAM: The Open Source CFD Toolbox           |
|  \\    /   O peration     | Version:  2212                                  |
|   \\  /    A nd           | Website:  www.openfoam.com                      |
|    \\/     M anipulation  |                                                 |
\*---------------------------------------------------------------------------*/
FoamFile
{
    version     2.0;
    format      ascii;
    arch        "LSB;label=32;scalar=64";
    class       volScalarField;
    location    "0.09";
    object      alphat;
}
// * * * * * * * * * * * * * * * * * * * * * * * * * * * * * * * * * * * * * //

dimensions      [1 -1 -1 0 0 0 0];

internalField   nonuniform List<scalar> 
3072
(
0.000343024
0.000723969
0.000749815
0.000746321
0.000718297
0.00069114
0.000757829
0.00124529
0.0017949
0.0019948
0.00208187
0.00215097
0.000558466
0.00143835
0.00196158
0.0018565
0.00118586
0.00100364
0.00183734
0.00229141
0.00353859
0.0049562
0.0069754
0.00907842
0.000731371
0.00262532
0.00318304
0.00273896
0.0024491
0.00266087
0.00410052
0.00605193
0.00882333
0.0120349
0.0151088
0.0178957
0.000920169
0.00376974
0.00364673
0.00324788
0.00355162
0.00518168
0.0080013
0.0111869
0.0148282
0.0184771
0.0217399
0.0245885
0.00106386
0.00459651
0.00469453
0.00462242
0.00593695
0.00885942
0.012288
0.0159551
0.0197725
0.023401
0.026639
0.0294561
0.00118988
0.00566292
0.00640479
0.00683761
0.00903655
0.0123647
0.0159756
0.0196921
0.0234088
0.0269021
0.0300405
0.0327847
0.00128566
0.0064275
0.00785165
0.0092324
0.0120768
0.0155595
0.0191132
0.0227076
0.0261915
0.0294386
0.0323695
0.0349565
0.00138903
0.00764024
0.00977375
0.0122819
0.0155119
0.0189107
0.0222785
0.0255682
0.028664
0.0315084
0.034073
0.0363383
0.00151527
0.00901897
0.0128486
0.0163596
0.0196698
0.0227182
0.0255581
0.0282092
0.0306457
0.032875
0.0349228
0.0367769
0.00169378
0.0107635
0.0160869
0.0199516
0.0230338
0.0255526
0.027746
0.029733
0.0315561
0.0332606
0.0348877
0.0364284
0.00194335
0.0105113
0.0176418
0.0217614
0.0245789
0.0268653
0.0287776
0.0304287
0.0319346
0.033337
0.0346727
0.0359733
0.00343466
0.0104271
0.018808
0.0233093
0.0258875
0.0280952
0.0298328
0.0312685
0.0325359
0.0336893
0.0347678
0.0357999
0.00218665
0.00220877
0.00221128
0.00221129
0.00219361
0.00215401
0.0020915
0.00200058
0.00187384
0.00171178
0.00148036
0.000717256
0.0111277
0.0128122
0.0138273
0.0140685
0.0137079
0.0128704
0.0115461
0.00976881
0.0075406
0.00459384
0.00219059
0.00121875
0.0202222
0.0218909
0.0227502
0.022855
0.0223548
0.0211654
0.0192768
0.0166404
0.0132289
0.0090316
0.00402568
0.00160209
0.0269177
0.0286463
0.0297034
0.030098
0.0297984
0.0287199
0.0267633
0.0237535
0.0195349
0.0139905
0.00693178
0.00195783
0.0317946
0.0336066
0.0348529
0.0354979
0.0354847
0.034726
0.0330592
0.0301996
0.0256209
0.0190775
0.0101911
0.00230774
0.0351014
0.0369649
0.0383557
0.0392469
0.039607
0.0393447
0.0382312
0.0358402
0.0315234
0.0244032
0.013988
0.00267225
0.0371723
0.0389953
0.0404193
0.0414576
0.0421256
0.0423686
0.0419723
0.0404211
0.0367655
0.0296187
0.0180174
0.00305266
0.0382897
0.0399225
0.0412534
0.0423332
0.0432022
0.043864
0.0441836
0.0436671
0.0411354
0.034447
0.0217375
0.00347811
0.0384229
0.0398557
0.0410945
0.0421722
0.0431499
0.0440927
0.0449852
0.0454948
0.0444306
0.0388729
0.0251434
0.00394353
0.0378559
0.0391386
0.0403002
0.041352
0.0423677
0.0434425
0.0446545
0.0459363
0.0464014
0.0428349
0.0289989
0.00443888
0.0372025
0.0383521
0.0394247
0.040404
0.0413344
0.0423079
0.0435726
0.0451406
0.0466033
0.045431
0.033438
0.00498421
0.0367875
0.0377309
0.0386353
0.0395227
0.040444
0.0413124
0.042206
0.0436883
0.0456628
0.0466296
0.0381188
0.00561063
0.000322258
0.000682946
0.000713102
0.000709391
0.000689908
0.000654438
0.000689163
0.00101087
0.00163309
0.00187118
0.00196567
0.00203453
0.000524444
0.00135815
0.00189483
0.00188374
0.0012994
0.000817586
0.0016022
0.00200019
0.00295439
0.0043235
0.00610113
0.00803008
0.000684531
0.00244777
0.00314227
0.00280457
0.00247467
0.00237806
0.00339775
0.00513048
0.00754412
0.0105519
0.0134574
0.01609
0.000861442
0.00363258
0.00360365
0.00314064
0.00318768
0.00416795
0.0067162
0.00967883
0.0130121
0.0164828
0.0196003
0.0223261
0.000999762
0.00431716
0.00431756
0.00408969
0.0048684
0.00733308
0.0106932
0.0140691
0.0176556
0.0211093
0.0242
0.0269001
0.00112254
0.00519673
0.00567916
0.00582672
0.00763552
0.0108046
0.0142127
0.0176978
0.0211217
0.0244285
0.0274144
0.0300377
0.00122292
0.00595417
0.00703102
0.00812501
0.0107303
0.0140263
0.0173663
0.0206774
0.0239163
0.0269431
0.0296848
0.0321184
0.00133323
0.00721443
0.00909013
0.0114234
0.0143883
0.0175109
0.0205777
0.0235543
0.0263944
0.0290081
0.031365
0.0334583
0.00146467
0.00879096
0.0123385
0.0156062
0.0185918
0.0213145
0.0238331
0.0261802
0.0283554
0.0303876
0.0322171
0.0338741
0.00165372
0.0106464
0.0154663
0.0189433
0.0217149
0.0239345
0.0258595
0.0275926
0.0292014
0.0307411
0.0321821
0.0335345
0.00189876
0.0101461
0.0167312
0.0205214
0.0230729
0.0250919
0.0267555
0.0281881
0.0294936
0.0307326
0.0319229
0.0330745
0.00333868
0.00984861
0.0176985
0.0218566
0.0241021
0.0260383
0.0275329
0.0287816
0.0299006
0.0309419
0.0319376
0.0329057
0.00207349
0.00209664
0.00210233
0.00210282
0.00209331
0.00205687
0.00200338
0.00191911
0.00180416
0.00165028
0.00142967
0.000690342
0.00999711
0.0116382
0.0126802
0.012984
0.012629
0.0118843
0.0106803
0.00907652
0.00702322
0.00430816
0.00208464
0.00117715
0.0183529
0.019988
0.0208737
0.0210533
0.0206181
0.019557
0.0178418
0.0154331
0.0123061
0.00843623
0.00379223
0.00155059
0.0245896
0.0262801
0.0273546
0.0277996
0.0275858
0.0266379
0.0248632
0.0221079
0.0182243
0.0131178
0.00653366
0.00189453
0.0291638
0.0309379
0.0321886
0.0328774
0.0329454
0.0323086
0.0308183
0.0282135
0.023944
0.0178772
0.00959585
0.0022343
0.0322714
0.0340902
0.0354742
0.0363935
0.0368078
0.0366336
0.0356584
0.0334873
0.0295224
0.022896
0.0132061
0.0025876
0.034227
0.0359927
0.0374041
0.0384622
0.0391749
0.0394917
0.0392106
0.0378445
0.0345003
0.0278634
0.0170516
0.00295679
0.0352875
0.0368574
0.0381705
0.039259
0.0401613
0.0408804
0.0412896
0.0409201
0.0386564
0.032488
0.020675
0.00336823
0.0353784
0.0367543
0.0379811
0.0390692
0.0400716
0.0410568
0.0420153
0.0426339
0.0417842
0.036711
0.0239497
0.00382399
0.0348231
0.0360628
0.0372007
0.0382594
0.0392911
0.0404049
0.0416684
0.0430273
0.0436732
0.0404428
0.0276994
0.00431235
0.0342294
0.0353474
0.0364154
0.0374198
0.0383658
0.0393517
0.0406524
0.0423478
0.0439224
0.0431846
0.0321686
0.00485921
0.0338664
0.0348147
0.0357412
0.0367132
0.0376942
0.0385474
0.0394876
0.0409635
0.0430205
0.0443501
0.0370248
0.00550913
0.00034302
0.000723961
0.000749808
0.000746315
0.000718291
0.000691133
0.000757819
0.00124527
0.00179489
0.00199479
0.00208186
0.00215096
0.000558461
0.00143834
0.00196158
0.00185651
0.00118587
0.00100362
0.00183731
0.00229138
0.00353854
0.00495615
0.00697532
0.00907834
0.000731366
0.00262531
0.00318307
0.00273897
0.00244913
0.00266082
0.00410043
0.00605182
0.0088232
0.0120348
0.0151086
0.0178956
0.000920161
0.00376977
0.00364676
0.00324789
0.00355158
0.00518152
0.00800114
0.0111867
0.014828
0.0184769
0.0217397
0.0245883
0.00106385
0.00459648
0.00469447
0.00462232
0.00593677
0.00885918
0.0122878
0.0159549
0.0197723
0.0234008
0.0266387
0.0294559
0.00118987
0.00566282
0.00640463
0.00683737
0.00903627
0.0123644
0.0159754
0.0196919
0.0234086
0.0269018
0.0300402
0.0327845
0.00128565
0.00642737
0.00785142
0.00923209
0.0120765
0.0155592
0.0191129
0.0227073
0.0261913
0.0294383
0.0323692
0.0349562
0.00138902
0.0076401
0.00977351
0.0122816
0.0155116
0.0189104
0.0222782
0.0255679
0.0286637
0.0315082
0.0340728
0.0363381
0.00151526
0.00901889
0.0128484
0.0163594
0.0196696
0.0227179
0.0255578
0.0282089
0.0306454
0.0328747
0.0349226
0.0367767
0.00169377
0.0107636
0.0160868
0.0199515
0.0230337
0.0255524
0.0277459
0.0297328
0.0315558
0.0332604
0.0348875
0.0364282
0.00194335
0.0105114
0.0176418
0.0217614
0.0245788
0.0268652
0.0287775
0.0304286
0.0319344
0.0333368
0.0346725
0.0359731
0.00343466
0.0104271
0.018808
0.0233093
0.0258875
0.0280951
0.0298327
0.0312684
0.0325358
0.0336892
0.0347677
0.0357997
0.00218664
0.00220876
0.00221127
0.00221129
0.00219361
0.002154
0.0020915
0.00200057
0.00187384
0.00171178
0.00148036
0.000717255
0.0111277
0.0128121
0.0138272
0.0140684
0.0137079
0.0128703
0.011546
0.00976877
0.00754057
0.00459382
0.00219059
0.00121875
0.020222
0.0218908
0.0227501
0.0228548
0.0223547
0.0211653
0.0192767
0.0166403
0.0132288
0.00903157
0.00402567
0.00160209
0.0269175
0.0286461
0.0297032
0.0300978
0.0297983
0.0287198
0.0267632
0.0237534
0.0195349
0.0139904
0.00693176
0.00195783
0.0317944
0.0336064
0.0348527
0.0354977
0.0354845
0.0347259
0.033059
0.0301995
0.0256208
0.0190774
0.010191
0.00230774
0.0351012
0.0369647
0.0383555
0.0392467
0.0396068
0.0393445
0.038231
0.03584
0.0315233
0.0244031
0.0139879
0.00267225
0.037172
0.0389951
0.0404191
0.0414574
0.0421253
0.0423684
0.0419721
0.0404209
0.0367653
0.0296186
0.0180174
0.00305265
0.0382894
0.0399222
0.0412531
0.0423329
0.043202
0.0438638
0.0441834
0.0436669
0.0411352
0.0344469
0.0217375
0.0034781
0.0384227
0.0398555
0.0410943
0.042172
0.0431496
0.0440924
0.0449849
0.0454945
0.0444304
0.0388728
0.0251434
0.00394353
0.0378557
0.0391383
0.0402999
0.0413518
0.0423674
0.0434423
0.0446543
0.045936
0.0464012
0.0428348
0.0289988
0.00443887
0.0372023
0.0383518
0.0394244
0.0404038
0.0413341
0.0423077
0.0435724
0.0451404
0.0466031
0.0454309
0.033438
0.00498421
0.0367874
0.0377307
0.0386351
0.0395225
0.0404438
0.0413122
0.0422058
0.0436881
0.0456625
0.0466294
0.0381187
0.00561062
0.000322258
0.000682946
0.000713102
0.000709391
0.000689908
0.000654438
0.000689163
0.00101087
0.00163309
0.00187118
0.00196567
0.00203454
0.000524444
0.00135815
0.00189482
0.00188374
0.0012994
0.000817583
0.0016022
0.00200019
0.00295439
0.0043235
0.00610114
0.00803008
0.000684531
0.00244777
0.00314226
0.00280456
0.00247466
0.00237806
0.00339775
0.00513048
0.00754412
0.0105519
0.0134574
0.01609
0.000861442
0.00363258
0.00360365
0.00314064
0.00318768
0.00416795
0.0067162
0.00967883
0.0130121
0.0164828
0.0196003
0.0223262
0.000999762
0.00431716
0.00431755
0.00408969
0.0048684
0.00733308
0.0106932
0.0140691
0.0176556
0.0211093
0.0242
0.0269001
0.00112254
0.00519673
0.00567916
0.00582672
0.00763551
0.0108046
0.0142127
0.0176978
0.0211217
0.0244285
0.0274144
0.0300377
0.00122292
0.00595417
0.00703102
0.00812501
0.0107303
0.0140263
0.0173663
0.0206774
0.0239163
0.0269431
0.0296848
0.0321184
0.00133324
0.00721444
0.00909014
0.0114234
0.0143883
0.0175109
0.0205777
0.0235543
0.0263944
0.0290081
0.031365
0.0334583
0.00146468
0.00879097
0.0123385
0.0156063
0.0185918
0.0213145
0.0238331
0.0261802
0.0283554
0.0303876
0.0322171
0.0338741
0.00165372
0.0106464
0.0154663
0.0189433
0.021715
0.0239345
0.0258595
0.0275926
0.0292014
0.0307411
0.0321821
0.0335345
0.00189876
0.0101461
0.0167312
0.0205214
0.0230729
0.0250919
0.0267555
0.0281881
0.0294936
0.0307326
0.0319229
0.0330745
0.00333868
0.0098486
0.0176985
0.0218566
0.024102
0.0260383
0.0275329
0.0287815
0.0299006
0.0309419
0.0319376
0.0329057
0.00207349
0.00209664
0.00210233
0.00210283
0.00209331
0.00205687
0.00200339
0.00191911
0.00180416
0.00165028
0.00142967
0.000690343
0.00999712
0.0116382
0.0126802
0.012984
0.012629
0.0118843
0.0106803
0.00907653
0.00702323
0.00430817
0.00208464
0.00117715
0.0183529
0.019988
0.0208737
0.0210533
0.0206181
0.019557
0.0178418
0.0154331
0.0123061
0.00843624
0.00379224
0.00155059
0.0245896
0.0262801
0.0273546
0.0277996
0.0275858
0.0266379
0.0248632
0.0221079
0.0182243
0.0131178
0.00653366
0.00189453
0.0291638
0.0309379
0.0321886
0.0328774
0.0329455
0.0323086
0.0308183
0.0282135
0.023944
0.0178772
0.00959585
0.0022343
0.0322714
0.0340902
0.0354742
0.0363935
0.0368079
0.0366336
0.0356584
0.0334873
0.0295225
0.022896
0.0132061
0.0025876
0.034227
0.0359927
0.0374041
0.0384622
0.039175
0.0394917
0.0392107
0.0378446
0.0345003
0.0278635
0.0170516
0.00295679
0.0352875
0.0368574
0.0381706
0.039259
0.0401614
0.0408804
0.0412896
0.0409201
0.0386564
0.032488
0.020675
0.00336823
0.0353784
0.0367543
0.0379811
0.0390692
0.0400716
0.0410568
0.0420154
0.042634
0.0417842
0.036711
0.0239498
0.00382399
0.0348231
0.0360628
0.0372008
0.0382595
0.0392911
0.040405
0.0416685
0.0430273
0.0436732
0.0404428
0.0276995
0.00431236
0.0342294
0.0353474
0.0364154
0.0374198
0.0383659
0.0393517
0.0406524
0.0423479
0.0439225
0.0431846
0.0321687
0.00485922
0.0338664
0.0348147
0.0357412
0.0367133
0.0376942
0.0385474
0.0394877
0.0409636
0.0430206
0.0443502
0.0370248
0.00550913
0.0209777
0.0219826
0.0238889
0.0260239
0.0280377
0.0298656
0.0312808
0.0324519
0.0334965
0.0344092
0.0352333
0.0359998
0.0328952
0.0307534
0.030311
0.0307118
0.031574
0.0324289
0.033048
0.0338507
0.0346904
0.0353097
0.035831
0.0363089
0.0404492
0.0383148
0.0368265
0.0359248
0.0355803
0.0355204
0.0355948
0.0357206
0.0358521
0.0359825
0.0361104
0.0363117
0.0429901
0.0414882
0.0400859
0.0389025
0.0379888
0.037282
0.0367242
0.036423
0.0361552
0.035901
0.035686
0.035444
0.0367189
0.0374039
0.0380629
0.038712
0.0394159
0.0403046
0.0412207
0.0422344
0.0439881
0.0463697
0.0474188
0.0221394
0.0367331
0.0371369
0.0375383
0.0379632
0.0384383
0.0390087
0.0398635
0.0407307
0.0420277
0.0444118
0.0493233
0.0363613
0.036409
0.0365252
0.0366764
0.036917
0.0372612
0.0377283
0.0384005
0.0393451
0.0404968
0.0422734
0.0468144
0.0426915
0.0352637
0.0352217
0.035343
0.0357307
0.0362576
0.0369194
0.037735
0.0388481
0.0400946
0.0414225
0.0443351
0.044069
0.0197575
0.020378
0.0221121
0.024003
0.025755
0.0273128
0.0285293
0.029602
0.0305899
0.0314776
0.0323046
0.0330975
0.031382
0.0288862
0.0280859
0.0281885
0.0287234
0.0293263
0.0299535
0.0307637
0.0316011
0.0322643
0.0328876
0.0334685
0.0390943
0.0364579
0.0343968
0.0332108
0.0326014
0.0324063
0.0324534
0.0326359
0.0329042
0.0331244
0.0333622
0.0336377
0.0418599
0.0397736
0.0379746
0.036437
0.0352773
0.0345244
0.0340134
0.0336346
0.0334596
0.0333419
0.0332505
0.0331827
0.0338714
0.0346288
0.0353621
0.0360934
0.0368647
0.0377778
0.0385514
0.0397015
0.0415887
0.0442699
0.0466422
0.0226563
0.0340325
0.0345736
0.0350791
0.035574
0.0360807
0.0367677
0.037519
0.0383174
0.0398367
0.0424985
0.048316
0.0372216
0.0339719
0.034263
0.0344801
0.0346916
0.0349531
0.0353962
0.0360969
0.0368546
0.0383252
0.040269
0.0453073
0.0432611
0.0331235
0.0330382
0.0330109
0.0330688
0.0332754
0.0338462
0.0346275
0.0355812
0.0372185
0.0388807
0.0426404
0.0437994
0.0209777
0.0219826
0.0238889
0.0260239
0.0280377
0.0298656
0.0312807
0.0324518
0.0334965
0.0344091
0.0352332
0.0359997
0.0328951
0.0307534
0.030311
0.0307118
0.0315739
0.0324289
0.0330479
0.0338506
0.0346903
0.0353097
0.0358309
0.0363088
0.0404491
0.0383147
0.0368264
0.0359248
0.0355802
0.0355204
0.0355948
0.0357206
0.035852
0.0359824
0.0361104
0.0363117
0.04299
0.0414881
0.0400858
0.0389024
0.0379887
0.0372819
0.0367242
0.0364229
0.0361552
0.0359009
0.0356859
0.0354439
0.0367188
0.0374037
0.0380627
0.0387118
0.0394157
0.0403044
0.0412205
0.0422342
0.0439879
0.0463695
0.0474186
0.0221394
0.036733
0.0371368
0.0375381
0.0379631
0.0384382
0.0390086
0.0398634
0.0407306
0.0420275
0.0444116
0.0493232
0.0363612
0.0364089
0.0365251
0.0366763
0.0369169
0.0372611
0.0377282
0.0384004
0.0393449
0.0404966
0.0422733
0.0468142
0.0426914
0.0352637
0.0352216
0.035343
0.0357306
0.0362575
0.0369193
0.0377349
0.038848
0.0400945
0.0414224
0.044335
0.0440688
0.0197575
0.020378
0.0221121
0.024003
0.025755
0.0273128
0.0285293
0.029602
0.0305899
0.0314776
0.0323046
0.0330975
0.031382
0.0288862
0.0280858
0.0281885
0.0287233
0.0293263
0.0299535
0.0307637
0.0316011
0.0322643
0.0328876
0.0334685
0.0390942
0.0364578
0.0343968
0.0332107
0.0326014
0.0324063
0.0324533
0.0326358
0.0329042
0.0331244
0.0333622
0.0336377
0.0418598
0.0397735
0.0379745
0.0364369
0.0352773
0.0345244
0.0340133
0.0336346
0.0334596
0.0333419
0.0332505
0.0331827
0.0338714
0.0346289
0.0353621
0.0360934
0.0368648
0.0377779
0.0385514
0.0397015
0.0415887
0.04427
0.0466423
0.0226563
0.0340325
0.0345736
0.0350791
0.0355741
0.0360807
0.0367678
0.0375191
0.0383175
0.0398368
0.0424986
0.0483161
0.0372217
0.0339719
0.034263
0.0344801
0.0346917
0.0349531
0.0353962
0.036097
0.0368547
0.0383253
0.0402692
0.0453074
0.0432612
0.0331235
0.0330383
0.033011
0.0330688
0.0332755
0.0338464
0.0346277
0.0355814
0.0372186
0.0388808
0.0426406
0.0437995
0.0413171
0.0400387
0.0387816
0.0376956
0.0368191
0.0361011
0.0354922
0.0350376
0.0345802
0.0341001
0.0336466
0.0333482
0.039109
0.0380056
0.0368669
0.0358447
0.0349693
0.0342136
0.0335385
0.0329236
0.0322475
0.0314583
0.0305902
0.0299591
0.0367712
0.0358341
0.0348044
0.0338348
0.0329605
0.0321632
0.0314019
0.0306203
0.0296818
0.028423
0.0266671
0.0247599
0.0344909
0.0337052
0.0327819
0.0318623
0.0309893
0.0301505
0.0292998
0.0283514
0.0271141
0.0251843
0.0216628
0.0161407
0.0335311
0.0342346
0.0351042
0.036135
0.0372482
0.0382895
0.0393731
0.0404187
0.0413882
0.0423148
0.0428169
0.0422713
0.0305059
0.0323704
0.0341709
0.0358441
0.0374123
0.0387351
0.039868
0.0407779
0.0414398
0.0416989
0.0416406
0.0407441
0.0253808
0.0296174
0.0327701
0.0351013
0.0369595
0.0384207
0.0395473
0.0403258
0.040666
0.0406624
0.040312
0.039077
0.016169
0.0257314
0.0309252
0.0339582
0.0360434
0.0375713
0.0386739
0.0392766
0.0394631
0.0393468
0.0387559
0.0373768
0.0402601
0.0383189
0.0366809
0.0353186
0.034281
0.0335245
0.0329147
0.0323894
0.0319835
0.0316127
0.0312966
0.0310844
0.0387282
0.0368417
0.0352123
0.0338335
0.0327064
0.0317768
0.0309511
0.0301785
0.0294503
0.0287144
0.0280128
0.0275202
0.0371686
0.0352904
0.0336042
0.0321263
0.0308444
0.0297093
0.028648
0.0276033
0.0265212
0.0252911
0.0238383
0.0225119
0.035552
0.0336813
0.0319343
0.030349
0.0289169
0.0275968
0.0263246
0.0250241
0.023573
0.0216805
0.0186816
0.0143426
0.0310156
0.0310372
0.0311411
0.031434
0.0320183
0.0329811
0.0342281
0.0357048
0.0375219
0.0394279
0.0414381
0.0419988
0.0275596
0.0280283
0.0284591
0.0290358
0.029917
0.0311512
0.0326564
0.0343501
0.0361892
0.0379595
0.0392917
0.0396618
0.0226064
0.0244656
0.0256319
0.0266075
0.0277531
0.0291588
0.0307721
0.0325107
0.034278
0.0358571
0.0368865
0.0371899
0.0143354
0.020198
0.0228271
0.024351
0.0257398
0.0272376
0.0288607
0.0305542
0.0322157
0.0336156
0.0345041
0.0347949
0.041317
0.0400386
0.0387814
0.0376955
0.036819
0.036101
0.0354922
0.0350376
0.0345801
0.0341001
0.0336466
0.0333481
0.0391088
0.0380055
0.0368668
0.0358446
0.0349693
0.0342136
0.0335384
0.0329236
0.0322475
0.0314582
0.0305901
0.0299591
0.0367711
0.0358339
0.0348042
0.0338346
0.0329604
0.0321631
0.0314018
0.0306203
0.0296817
0.028423
0.0266671
0.0247598
0.0344907
0.033705
0.0327817
0.0318622
0.0309892
0.0301504
0.0292997
0.0283513
0.027114
0.0251842
0.0216627
0.0161406
0.033531
0.0342345
0.0351041
0.0361349
0.0372481
0.0382894
0.0393729
0.0404185
0.0413881
0.0423147
0.0428167
0.0422712
0.0305059
0.0323703
0.0341708
0.035844
0.0374121
0.038735
0.0398679
0.0407778
0.0414397
0.0416988
0.0416405
0.040744
0.0253807
0.0296173
0.03277
0.0351012
0.0369594
0.0384206
0.0395472
0.0403257
0.0406659
0.0406623
0.0403119
0.0390769
0.0161689
0.0257313
0.0309251
0.0339581
0.0360432
0.0375712
0.0386738
0.0392764
0.039463
0.0393467
0.0387558
0.0373767
0.04026
0.0383188
0.0366808
0.0353186
0.034281
0.0335245
0.0329147
0.0323894
0.0319835
0.0316128
0.0312966
0.0310844
0.0387281
0.0368417
0.0352123
0.0338335
0.0327065
0.0317768
0.0309511
0.0301786
0.0294504
0.0287144
0.0280129
0.0275203
0.0371686
0.0352904
0.0336042
0.0321263
0.0308445
0.0297094
0.0286481
0.0276034
0.0265213
0.0252912
0.0238384
0.0225119
0.035552
0.0336813
0.0319343
0.0303491
0.028917
0.0275969
0.0263247
0.0250243
0.0235732
0.0216806
0.0186817
0.0143426
0.0310157
0.0310373
0.0311412
0.0314341
0.0320185
0.0329813
0.0342283
0.035705
0.0375221
0.0394281
0.0414383
0.041999
0.0275597
0.0280284
0.0284594
0.0290361
0.0299173
0.0311515
0.0326567
0.0343504
0.0361894
0.0379597
0.0392919
0.039662
0.0226065
0.0244659
0.0256323
0.026608
0.0277536
0.0291592
0.0307725
0.032511
0.0342783
0.0358573
0.0368868
0.0371901
0.0143354
0.0201983
0.0228276
0.0243516
0.0257404
0.0272382
0.0288612
0.0305546
0.032216
0.0336159
0.0345044
0.0347951
0.0323398
0.0316864
0.0308604
0.0299898
0.0291215
0.0282465
0.0273133
0.0262123
0.0246957
0.0220289
0.0159544
0.0035334
0.0303329
0.0297903
0.0290511
0.0282286
0.0273695
0.0264667
0.025465
0.0242401
0.0225133
0.0195751
0.0137078
0.00245447
0.0284577
0.0280059
0.0273433
0.0265675
0.0257228
0.0248026
0.0237505
0.0224393
0.0205991
0.0176336
0.012305
0.00200544
0.0266858
0.0263082
0.025713
0.024983
0.0241584
0.0232324
0.0221502
0.0207906
0.0189136
0.0160463
0.0112612
0.00178719
0.0249725
0.0246566
0.0241216
0.0234376
0.0226398
0.021721
0.0206297
0.0192566
0.0173986
0.0146872
0.0103709
0.00163141
0.0232476
0.0229853
0.0225063
0.0218709
0.0211087
0.0202121
0.019134
0.0177794
0.0159818
0.0134527
0.00954012
0.00149727
0.0213975
0.0211852
0.0207623
0.0201816
0.0194679
0.0186122
0.0175725
0.0162688
0.0145675
0.0122409
0.00870508
0.00137343
0.0192357
0.0190741
0.0187122
0.0181987
0.0175525
0.0167634
0.0157944
0.0145805
0.0130174
0.0109282
0.00779755
0.00125259
0.0164584
0.0163513
0.0160615
0.0156357
0.0150866
0.0144017
0.0135495
0.0124815
0.0111197
0.00933922
0.00671568
0.0011263
0.0125889
0.0125391
0.0123379
0.0120314
0.011624
0.0111001
0.0104359
0.00960261
0.00853797
0.00719139
0.00527934
0.000981433
0.0069932
0.00699097
0.00689363
0.00674508
0.00653881
0.00625691
0.00588807
0.00542825
0.00480933
0.00406976
0.00311907
0.000798341
0.000748101
0.000743587
0.000731079
0.000713464
0.000690484
0.000662054
0.000627352
0.000583216
0.000527127
0.000456062
0.000363463
0.000173041
0.00366539
0.0209685
0.0288519
0.032539
0.0348036
0.0363614
0.0373994
0.0378951
0.0380435
0.0378197
0.0370339
0.0356505
0.00287648
0.0188185
0.0269677
0.0309697
0.0333514
0.0349267
0.0358806
0.0363309
0.0364351
0.0361247
0.0352563
0.0339107
0.00254618
0.0173556
0.0252235
0.0293218
0.0317577
0.0333218
0.034227
0.0346456
0.0347008
0.0343258
0.0334464
0.0321656
0.0023542
0.0161428
0.0235717
0.0276256
0.030062
0.0315968
0.032465
0.0328661
0.0328727
0.0324533
0.0316051
0.0304067
0.00220579
0.0150165
0.0219564
0.0258776
0.0282703
0.0297598
0.0305996
0.0309723
0.0309375
0.0305045
0.0297069
0.0285983
0.00207238
0.0138909
0.0203168
0.0240412
0.0263464
0.027775
0.0285798
0.0289166
0.0288475
0.0284191
0.0276817
0.0266628
0.00194056
0.0127025
0.0185745
0.0220367
0.0242031
0.025546
0.0262955
0.0265894
0.0264919
0.0260758
0.0253937
0.0244696
0.00180185
0.0113712
0.0166103
0.019716
0.0216724
0.022883
0.0235478
0.0237872
0.0236641
0.0232618
0.0226281
0.0218136
0.00165327
0.00976679
0.014206
0.0168104
0.0184496
0.0194578
0.0199958
0.0201646
0.0200223
0.0196385
0.0190614
0.018393
0.00147858
0.00769677
0.0109751
0.0128491
0.0140233
0.014738
0.0151008
0.0151931
0.0150489
0.0147073
0.0142473
0.0137609
0.00125667
0.00467669
0.00624657
0.00713796
0.00770821
0.00805412
0.00821344
0.00825453
0.00814895
0.00795514
0.00769886
0.00742103
0.00029704
0.000516056
0.000658432
0.000746601
0.000806547
0.000847168
0.000871047
0.000880692
0.000876556
0.00086417
0.00084579
0.000822608
0.0339041
0.032063
0.0302851
0.0286239
0.0270798
0.0256196
0.0241817
0.0226685
0.0208864
0.0183071
0.013098
0.00295986
0.0322528
0.0304724
0.0287075
0.0270187
0.0254147
0.0238692
0.0223217
0.0206605
0.0186614
0.0157824
0.0106126
0.00180669
0.0306093
0.0289194
0.0272106
0.0255437
0.023933
0.0223576
0.0207593
0.0190236
0.0169308
0.0140164
0.00925975
0.00136227
0.0289611
0.0273831
0.025764
0.0241599
0.022588
0.0210315
0.0194366
0.0176953
0.0156132
0.012824
0.00859391
0.00119465
0.0272648
0.0258114
0.0243027
0.02279
0.0212908
0.0197918
0.018245
0.0165538
0.0145554
0.011967
0.00822628
0.00112151
0.0254445
0.0241172
0.0227291
0.0213259
0.0199238
0.0185118
0.0170479
0.0154478
0.0135778
0.0112121
0.00787269
0.00107067
0.0233753
0.0221701
0.0209089
0.0196297
0.0183458
0.0170466
0.0156954
0.0142192
0.0125076
0.0103689
0.00741841
0.00103251
0.020862
0.0197813
0.0186598
0.0175256
0.0163858
0.0152299
0.0140247
0.012707
0.0111867
0.00928924
0.00677752
0.000987103
0.0176111
0.0166837
0.0157335
0.0147819
0.0138273
0.0128579
0.0118448
0.0107333
0.00945667
0.00784141
0.00584724
0.000929267
0.0131706
0.0124808
0.0117587
0.0110521
0.010344
0.00962307
0.00886591
0.00802648
0.00707341
0.00580646
0.00441887
0.000846754
0.00710634
0.00677253
0.00641266
0.00604207
0.00566597
0.00528114
0.00487509
0.00441089
0.00391322
0.00316302
0.00247188
0.000727046
0.000794511
0.000762746
0.000727941
0.000691618
0.000654513
0.000616274
0.000576656
0.000533617
0.000487159
0.000424922
0.000362993
0.000225206
0.00319164
0.0153146
0.0201543
0.0223098
0.0239147
0.025448
0.0270251
0.0286319
0.0301752
0.0314392
0.0322508
0.0325502
0.00230954
0.0129278
0.0179973
0.0205249
0.0222618
0.0237892
0.0252941
0.0268015
0.0282323
0.0293909
0.0301541
0.0304681
0.00188317
0.0113499
0.0162684
0.0189441
0.0207397
0.022233
0.0236582
0.02507
0.0264021
0.0274773
0.0282054
0.0285331
0.00162863
0.0101611
0.0148246
0.0175045
0.0192943
0.0207338
0.0220823
0.0234117
0.0246636
0.0256733
0.0263744
0.0267138
0.00144673
0.00917695
0.0135419
0.0161339
0.0178631
0.0192322
0.0205102
0.021775
0.0229683
0.0239296
0.0246111
0.0249616
0.00130661
0.00827908
0.0123288
0.0147587
0.0163759
0.0176546
0.0188647
0.0200812
0.0212382
0.0221688
0.0228383
0.0232027
0.00118676
0.00742203
0.0111065
0.0133011
0.0147516
0.0159109
0.0170447
0.0182204
0.0193584
0.0202729
0.0209362
0.0213198
0.00107537
0.00656246
0.00978963
0.0116673
0.012891
0.0138897
0.0149204
0.0160431
0.0171644
0.0180645
0.0187176
0.0191251
0.000963601
0.00562424
0.00825664
0.00972584
0.0106607
0.0114476
0.0123245
0.0133482
0.0144199
0.0152792
0.0158942
0.0163178
0.000839799
0.00445164
0.00629427
0.00724047
0.00782238
0.00833612
0.00897188
0.0097962
0.0107405
0.0115203
0.0120424
0.0124333
0.000685454
0.00270503
0.00357196
0.00394835
0.00416508
0.00437569
0.00470267
0.00521301
0.00580505
0.00630267
0.00665044
0.00688278
0.000148484
0.000313942
0.000387432
0.000429553
0.000462338
0.000500414
0.000549369
0.000606407
0.000656819
0.000695836
0.000724817
0.000742397
0.0323395
0.0316862
0.0308602
0.0299897
0.0291214
0.0282464
0.0273132
0.0262122
0.0246956
0.0220288
0.0159543
0.00353339
0.0303326
0.02979
0.0290509
0.0282284
0.0273693
0.0264666
0.0254648
0.02424
0.0225131
0.0195749
0.0137077
0.00245446
0.0284574
0.0280056
0.027343
0.0265673
0.0257226
0.0248024
0.0237503
0.0224391
0.0205989
0.0176334
0.0123049
0.00200543
0.0266855
0.0263079
0.0257127
0.0249828
0.0241581
0.0232322
0.0221499
0.0207903
0.0189133
0.0160461
0.0112611
0.00178716
0.0249722
0.0246563
0.0241213
0.0234373
0.0226395
0.0217207
0.0206294
0.0192563
0.0173983
0.0146869
0.0103707
0.00163137
0.0232472
0.0229849
0.022506
0.0218706
0.0211084
0.0202118
0.0191337
0.0177791
0.0159814
0.0134524
0.0095399
0.00149722
0.0213971
0.0211848
0.0207619
0.0201813
0.0194675
0.0186118
0.0175722
0.0162684
0.0145671
0.0122406
0.00870488
0.00137337
0.0192353
0.0190738
0.018712
0.0181984
0.0175522
0.0167631
0.0157941
0.0145802
0.0130171
0.010928
0.00779742
0.00125251
0.0164581
0.0163511
0.0160613
0.0156355
0.0150864
0.0144015
0.0135493
0.0124813
0.0111195
0.0093391
0.00671567
0.0011262
0.0125888
0.0125389
0.0123378
0.0120313
0.0116239
0.0111
0.0104358
0.00960253
0.00853792
0.00719139
0.00527945
0.000981307
0.00699312
0.0069909
0.00689357
0.00674501
0.00653875
0.00625686
0.00588803
0.00542821
0.00480931
0.00406977
0.00311916
0.000798183
0.000748082
0.00074357
0.000731062
0.000713448
0.000690468
0.000662038
0.000627336
0.000583198
0.000527107
0.000456038
0.000363435
0.000172975
0.00366539
0.0209685
0.0288518
0.0325389
0.0348034
0.0363613
0.0373993
0.0378949
0.0380433
0.0378196
0.0370338
0.0356504
0.00287648
0.0188184
0.0269676
0.0309696
0.0333512
0.0349265
0.0358805
0.0363308
0.0364349
0.0361246
0.0352562
0.0339107
0.00254617
0.0173555
0.0252234
0.0293216
0.0317575
0.0333216
0.0342269
0.0346455
0.0347007
0.0343257
0.0334464
0.0321656
0.0023542
0.0161428
0.0235715
0.0276254
0.0300619
0.0315966
0.0324648
0.032866
0.0328726
0.0324532
0.031605
0.0304067
0.00220578
0.0150164
0.0219563
0.0258775
0.0282701
0.0297597
0.0305995
0.0309722
0.0309374
0.0305044
0.0297068
0.0285983
0.00207237
0.0138909
0.0203167
0.024041
0.0263462
0.0277749
0.0285797
0.0289165
0.0288474
0.028419
0.0276817
0.0266628
0.00194055
0.0127024
0.0185744
0.0220366
0.024203
0.0255458
0.0262954
0.0265893
0.0264918
0.0260757
0.0253937
0.0244696
0.00180183
0.0113711
0.0166102
0.0197159
0.0216723
0.0228829
0.0235477
0.0237871
0.023664
0.0232618
0.0226281
0.0218136
0.00165326
0.00976676
0.014206
0.0168103
0.0184496
0.0194577
0.0199957
0.0201645
0.0200223
0.0196385
0.0190614
0.018393
0.00147856
0.00769677
0.0109751
0.0128491
0.0140233
0.014738
0.0151008
0.0151931
0.0150489
0.0147073
0.0142473
0.0137609
0.00125665
0.00467669
0.00624657
0.00713795
0.00770819
0.0080541
0.00821342
0.00825451
0.00814894
0.00795513
0.00769886
0.00742103
0.000297034
0.00051605
0.000658427
0.000746595
0.000806542
0.000847162
0.000871042
0.000880687
0.000876552
0.000864166
0.000845787
0.000822605
0.0339041
0.032063
0.0302852
0.028624
0.0270799
0.0256197
0.0241819
0.0226687
0.0208867
0.0183073
0.0130981
0.00295988
0.0322528
0.0304725
0.0287076
0.0270188
0.0254149
0.0238695
0.022322
0.0206609
0.0186617
0.0157827
0.0106128
0.00180676
0.0306093
0.0289194
0.0272107
0.0255438
0.0239332
0.0223579
0.0207596
0.019024
0.0169313
0.0140169
0.00926013
0.00136239
0.0289611
0.0273832
0.0257641
0.02416
0.0225882
0.0210318
0.019437
0.0176958
0.0156137
0.0128246
0.00859433
0.0011948
0.0272648
0.0258115
0.0243028
0.0227901
0.021291
0.0197921
0.0182454
0.0165543
0.0145559
0.0119676
0.00822662
0.00112168
0.0254445
0.0241172
0.0227292
0.021326
0.019924
0.0185121
0.0170482
0.0154483
0.0135784
0.0112127
0.00787288
0.00107086
0.0233753
0.0221701
0.0209089