/*--------------------------------*- C++ -*----------------------------------*\
| =========                 |                                                 |
| \\      /  F ield         | OpenFOAM: The Open Source CFD Toolbox           |
|  \\    /   O peration     | Version:  2212                                  |
|   \\  /    A nd           | Website:  www.openfoam.com                      |
|    \\/     M anipulation  |                                                 |
\*---------------------------------------------------------------------------*/
FoamFile
{
    version     2.0;
    format      ascii;
    arch        "LSB;label=32;scalar=64";
    class       volScalarField;
    location    "0.09";
    object      epsilon;
}
// * * * * * * * * * * * * * * * * * * * * * * * * * * * * * * * * * * * * * //

dimensions      [0 2 -3 0 0 0 0];

internalField   nonuniform List<scalar> 
3072
(
2067.03
1839.45
2286.7
2281.65
2231.35
1966.81
1823.12
2605.93
13620.9
34143.9
44106.3
49200.3
5597.1
5059.94
4035.08
3412.04
4130.65
6560.51
16694.2
23510.7
25199.1
32832.3
35433.9
36683
7939.6
6206.68
6229.15
7498.97
14952.5
20408.9
20928.6
22321.6
24838.1
27838.5
28840.9
29991.2
11153.5
8618.81
10006.1
12501.4
16965.8
18610.1
18904.7
21084.4
23697.4
25160.1
25961.8
26797.8
13168.4
10542.1
12648.1
13827.2
15779.9
16558.5
18662.4
21144.5
23020.3
23981
24551
25092.3
14526.3
11453
12808.7
13434.5
15132
16876.4
19280.1
21555.4
22853.4
23390.3
23700
24003
14961.7
11447.6
12399.6
13560.4
15862.5
18239.3
20665
22329.1
23142.6
23452.4
23552
23656.2
16166.3
11767.2
12998.9
15377
18735.6
21370
23227
24160
24415.9
24369.5
24251
24215.2
18134.2
13316.3
16809.4
21639.3
26092.2
28416.8
29154
28907
28212.9
27455.6
26821.8
26409.4
22313.6
18395.5
28441.2
37032.2
42327.3
43426.2
42024.5
39482.7
36835.5
34511.9
32667
31324.4
25793
34167.3
55920.8
68007
71085.5
68821.3
63205.6
56922.4
51076.9
46131
42198.6
39210.5
97196
97963.7
107966
110244
106238
97099.4
86676.5
76542.7
67458.9
59781.3
53585.2
48733.3
53415.7
55559.2
56828.7
57025.1
57095.6
54459.6
50628.8
44540.8
37023.1
28214.9
17935.5
21728.7
37784.2
38654.2
39449.4
40199.9
41091.1
42451.3
44987.4
48589.7
53433.5
59075.3
61806.8
72983.4
30948.2
31652.9
32245.3
32866.3
33935
35840.4
39097.7
44298.9
52345.3
64149.5
81136.9
115796
27468.6
28054.1
28652.4
29384.7
30534.6
32491.4
35838.5
41393.2
50501.9
65653
92729.6
146677
25529.7
25943.8
26417.2
27074.9
28160.5
30058
33363.1
38995.3
48559.4
65499.4
99447.1
172791
24289.5
24622.5
25073.9
25762.3
26904.7
28840.5
32120.8
37677.2
47305.3
64962.4
103246
196423
23830.2
24122
24591.7
25344.4
26558
28526.2
31777.8
37254.3
46782.7
64522.3
105585
219671
24312.2
24576.7
25073.5
25894.2
27168.8
29150.6
32320.6
37604.9
46928.1
64680.5
107024
247200
26275.7
26437.1
26879.8
27687.3
28979.7
30941.2
33987.8
39008.7
48009
65687.7
109286
280301
30511.4
30249.1
30486.4
31121.4
32257.7
34086.8
36908.6
41508.9
49975.8
67182.6
111512
315662
37184.3
36079.2
35858.1
36295
37165.2
38663.7
41052.2
45000.6
52505.1
68597.6
113991
358211
45324.3
43306.2
42459.7
42607.9
43239
44284.1
45975.5
48868
54486.2
68728.4
114813
416086
2067.06
1839.47
2286.72
2281.67
2231.36
1966.82
1823.13
2605.96
13621.2
34144.2
44106.5
49200.5
5597.16
5059.99
4035.11
3412.06
4130.68
6560.57
16694.4
23510.7
25199.3
32832.5
35434.1
36683.1
7939.68
6206.74
6229.2
7499.04
14952.6
20409
20928.6
22321.7
24838.2
27838.6
28841
29991.3
11153.6
8618.9
10006.2
12501.4
16965.8
18610.1
18904.8
21084.5
23697.4
25160.2
25961.9
26797.9
13168.6
10542.2
12648.2
13827.2
15780
16558.6
18662.5
21144.6
23020.4
23981.1
24551.1
25092.4
14526.4
11453.1
12808.8
13434.6
15132.1
16876.5
19280.2
21555.5
22853.5
23390.4
23700.1
24003.1
14961.8
11447.7
12399.7
13560.4
15862.6
18239.4
20665.1
22329.2
23142.7
23452.5
23552.1
23656.3
16166.4
11767.2
12999
15377.1
18735.7
21370.1
23227.1
24160.1
24416
24369.6
24251.1
24215.3
18134.3
13316.3
16809.5
21639.3
26092.3
28416.9
29154.1
28907.1
28213
27455.7
26821.9
26409.5
22313.6
18395.5
28441.2
37032.2
42327.3
43426.2
42024.5
39482.8
36835.6
34512
32667.1
31324.5
25793
34167.3
55920.7
68007
71085.4
68821.3
63205.6
56922.4
51077
46131.1
42198.6
39210.6
97196
97963.9
107966
110244
106238
97099.4
86676.6
76542.8
67458.9
59781.3
53585.3
48733.3
53415.9
55559.4
56828.9
57025.3
57095.8
54459.8
50629
44540.9
37023.2
28215
17935.5
21728.8
37784.3
38654.3
39449.5
40200
41091.2
42451.4
44987.5
48589.7
53433.6
59075.4
61806.9
72983.5
30948.3
31653
32245.4
32866.4
33935.1
35840.5
39097.8
44299
52345.4
64149.6
81137
115796
27468.7
28054.2
28652.5
29384.8
30534.7
32491.5
35838.6
41393.3
50502
65653.1
92729.8
146677
25529.8
25943.9
26417.3
27075
28160.6
30058.1
33363.2
38995.5
48559.5
65499.5
99447.3
172791
24289.6
24622.6
25074
25762.4
26904.8
28840.6
32120.9
37677.3
47305.4
64962.5
103247
196423
23830.3
24122.2
24591.8
25344.5
26558.1
28526.3
31777.9
37254.4
46782.8
64522.4
105585
219671
24312.3
24576.8
25073.6
25894.3
27168.9
29150.7
32320.7
37605
46928.2
64680.6
107025
247200
26275.8
26437.2
26879.9
27687.4
28979.8
30941.3
33987.9
39008.8
48009.1
65687.8
109286
280301
30511.5
30249.2
30486.5
31121.5
32257.8
34086.9
36908.7
41509
49975.9
67182.7
111512
315662
37184.4
36079.2
35858.2
36295.1
37165.3
38663.8
41052.2
45000.6
52505.2
68597.7
113991
358212
45324.3
43306.3
42459.7
42608
43239.1
44284.2
45975.5
48868
54486.2
68728.5
114813
416087
2067.07
1839.48
2286.73
2281.69
2231.38
1966.84
1823.15
2605.98
13621.2
34144.1
44106.4
49200.4
5597.19
5060.01
4035.13
3412.09
4130.71
6560.6
16694.4
23510.7
25199.2
32832.4
35434
36683.1
7939.73
6206.77
6229.24
7499.11
14952.7
20408.9
20928.5
22321.7
24838.2
27838.6
28840.9
29991.3
11153.7
8618.94
10006.3
12501.5
16965.8
18610.1
18904.7
21084.5
23697.4
25160.2
25961.9
26797.9
13168.7
10542.2
12648.2
13827.3
15780
16558.6
18662.5
21144.6
23020.4
23981.1
24551.1
25092.4
14526.5
11453.1
12808.8
13434.6
15132.1
16876.5
19280.2
21555.5
22853.4
23390.4
23700.1
24003.1
14961.9
11447.7
12399.7
13560.4
15862.6
18239.4
20665.1
22329.2
23142.7
23452.5
23552.1
23656.3
16166.5
11767.3
12999
15377.1
18735.7
21370.1
23227.1
24160.1
24416
24369.6
24251.1
24215.4
18134.4
13316.3
16809.5
21639.4
26092.3
28416.9
29154.2
28907.2
28213
27455.7
26822
26409.5
22313.6
18395.5
28441.2
37032.2
42327.4
43426.3
42024.6
39482.9
36835.7
34512.1
32667.2
31324.6
25793.1
34167.3
55920.8
68007
71085.5
68821.4
63205.6
56922.5
51077.1
46131.2
42198.7
39210.6
97196.2
97964
107966
110244
106238
97099.5
86676.6
76542.8
67459
59781.4
53585.3
48733.4
53415.8
55559.4
56828.8
57025.2
57095.7
54459.7
50628.9
44540.9
37023.1
28214.9
17935.5
21728.7
37784.3
38654.2
39449.4
40200
41091.1
42451.3
44987.4
48589.7
53433.5
59075.3
61806.7
72983.2
30948.2
31653
32245.3
32866.3
33935
35840.4
39097.7
44298.9
52345.4
64149.5
81136.8
115796
27468.7
28054.2
28652.5
29384.7
30534.7
32491.4
35838.5
41393.2
50501.9
65653
92729.6
146677
25529.8
25943.9
26417.3
27075
28160.6
30058.1
33363.1
38995.4
48559.5
65499.4
99447.1
172791
24289.6
24622.6
25074
25762.4
26904.8
28840.6
32120.9
37677.3
47305.4
64962.4
103246
196423
23830.3
24122.2
24591.8
25344.5
26558.1
28526.3
31777.9
37254.4
46782.8
64522.3
105585
219671
24312.4
24576.8
25073.6
25894.3
27168.9
29150.7
32320.7
37605
46928.2
64680.6
107024
247200
26275.8
26437.2
26880
27687.4
28979.8
30941.3
33987.9
39008.8
48009.1
65687.8
109286
280301
30511.6
30249.3
30486.6
31121.6
32257.8
34086.9
36908.7
41509
49975.9
67182.7
111512
315662
37184.5
36079.3
35858.3
36295.2
37165.4
38663.8
41052.3
45000.6
52505.2
68597.6
113991
358211
45324.4
43306.3
42459.8
42608
43239.1
44284.2
45975.5
48868
54486.2
68728.5
114813
416086
2067.04
1839.46
2286.7
2281.66
2231.35
1966.81
1823.12
2605.94
13621
34143.9
44106.3
49200.3
5597.13
5059.96
4035.09
3412.04
4130.65
6560.51
16694.2
23510.6
25199.1
32832.3
35433.9
36683
7939.64
6206.7
6229.16
7498.99
14952.5
20408.9
20928.5
22321.6
24838.1
27838.5
28840.8
29991.2
11153.5
8618.84
10006.1
12501.4
16965.7
18610
18904.7
21084.4
23697.3
25160.1
25961.8
26797.8
13168.5
10542.1
12648.1
13827.2
15779.9
16558.5
18662.5
21144.5
23020.3
23981
24551
25092.3
14526.4
11453
12808.7
13434.5
15132
16876.4
19280.1
21555.4
22853.4
23390.3
23700
24003
14961.8
11447.6
12399.6
13560.4
15862.5
18239.3
20665
22329.1
23142.6
23452.4
23552
23656.3
16166.4
11767.2
12998.9
15377
18735.6
21370
23227
24160
24416
24369.5
24251
24215.3
18134.3
13316.3
16809.4
21639.3
26092.2
28416.8
29154.1
28907.1
28213
27455.7
26821.9
26409.4
22313.5
18395.4
28441.2
37032.2
42327.3
43426.2
42024.5
39482.8
36835.6
34512
32667.1
31324.5
25793
34167.3
55920.7
68007
71085.4
68821.3
63205.6
56922.5
51077
46131.1
42198.7
39210.6
97196
97963.8
107966
110244
106238
97099.4
86676.6
76542.8
67459
59781.4
53585.3
48733.4
53415.7
55559.2
56828.7
57025.1
57095.6
54459.6
50628.8
44540.8
37023.1
28214.9
17935.5
21728.6
37784.2
38654.1
39449.3
40199.9
41091.1
42451.3
44987.3
48589.6
53433.5
59075.2
61806.7
72983.2
30948.1
31652.9
32245.3
32866.3
33935
35840.4
39097.7
44298.9
52345.3
64149.4
81136.8
115796
27468.6
28054.1
28652.4
29384.7
30534.6
32491.4
35838.5
41393.2
50501.9
65652.9
92729.5
146677
25529.8
25943.8
26417.2
27075
28160.5
30058
33363.1
38995.4
48559.4
65499.3
99447
172791
24289.5
24622.6
25073.9
25762.3
26904.7
28840.5
32120.9
37677.2
47305.3
64962.4
103246
196423
23830.2
24122.1
24591.7
25344.5
26558
28526.3
31777.9
37254.3
46782.7
64522.3
105585
219671
24312.3
24576.8
25073.5
25894.2
27168.9
29150.7
32320.7
37604.9
46928.1
64680.5
107024
247200
26275.7
26437.2
26879.9
27687.4
28979.8
30941.3
33987.9
39008.8
48009
65687.7
109286
280301
30511.5
30249.2
30486.5
31121.5
32257.7
34086.8
36908.7
41509
49975.8
67182.6
111512
315661
37184.4
36079.3
35858.2
36295.1
37165.3
38663.8
41052.2
45000.6
52505.1
68597.6
113991
358211
45324.4
43306.3
42459.8
42608
43239.1
44284.2
45975.5
48868
54486.2
68728.4
114813
416086
155249
144548
133854
125125
116661
107370
97603.9
87748.4
78344.2
69926.2
62791.8
56943.1
96471
97635.7
97356.5
96800.7
95608.5
93432.7
90000.9
84595.2
78128.5
71943.7
66173.3
61081.2
65695.7
67748.7
69177.4
70519.5
71782.5
72734.2
72688.8
71761.2
70115.6
67581.4
64159.5
60941.3
51869.5
53422.9
54697.8
55897.3
57144.5
58431.6
59498.7
60250.4
60257.7
59766.2
58823.3
57576.5
52792
50371.3
49186
48995.4
49213.3
49595.9
50180.6
51504.4
54714.5
63304.1
87275.4
172912
57505.5
55572.5
54399.8
53632.4
52832.1
52132.3
51612.5
51745.2
52789.2
56275.6
65952.2
90643.5
58802.3
57617.6
56190.1
54598.9
52733.4
50911.6
49332.4
48388.5
48359
49433.2
53301
61765.9
56322.6
54627.8
52211.6
49635.7
47125.3
45181.8
43843.9
43257.5
43379.5
44077.6
46161.9
49641.9
155249
144549
133855
125125
116662
107371
97604.1
87748.5
78344.2
69926.2
62791.8
56943.2
96471.2
97636.2
97357
96801.1
95608.9
93433
90001.2
84595.3
78128.6
71943.8
66173.4
61081.2
65695.8
67749.1
69177.8
70519.9
71782.8
72734.5
72689
71761.4
70115.8
67581.5
64159.6
60941.4
51869.7
53423.2
54698.1
55897.6
57144.8
58431.8
59498.9
60250.6
60257.8
59766.3
58823.4
57576.5
52792
50371.3
49186
48995.5
49213.3
49596
50180.7
51504.5
54714.5
63304.2
87275.5
172912
57505.5
55572.5
54399.8
53632.4
52832.1
52132.4
51612.6
51745.2
52789.2
56275.6
65952.3
90643.6
58802.3
57617.6
56190.2
54599
52733.5
50911.7
49332.4
48388.6
48359.1
49433.2
53301
61766
56322.7
54627.8
52211.6
49635.8
47125.3
45181.8
43843.9
43257.6
43379.5
44077.7
46162
49642
155249
144549
133855
125125
116662
107371
97604.1
87748.5
78344.2
69926.3
62791.9
56943.2
96471.3
97636.3
97357.1
96801.1
95608.9
93433
90001.2
84595.3
78128.6
71943.8
66173.4
61081.3
65695.9
67749.2
69177.9
70519.9
71782.9
72734.5
72689
71761.4
70115.8
67581.5
64159.6
60941.4
51869.7
53423.3
54698.1
55897.7
57144.8
58431.8
59498.9
60250.6
60257.8
59766.2
58823.4
57576.5
52792.1
50371.4
49186.1
48995.5
49213.3
49596
50180.7
51504.5
54714.5
63304.1
87275.5
172912
57505.6
55572.6
54399.8
53632.4
52832.1
52132.4
51612.6
51745.2
52789.2
56275.6
65952.2
90643.6
58802.3
57617.6
56190.2
54599
52733.4
50911.6
49332.4
48388.6
48359.1
49433.2
53301
61765.9
56322.6
54627.8
52211.6
49635.7
47125.3
45181.8
43843.9
43257.5
43379.5
44077.6
46162
49642
155249
144548
133855
125125
116662
107370
97604
87748.5
78344.2
69926.3
62791.9
56943.2
96471.2
97636.2
97357
96801.1
95608.8
93433
90001.1
84595.3
78128.6
71943.8
66173.4
61081.3
65695.8
67749.1
69177.8
70519.9
71782.8
72734.4
72689
71761.3
70115.8
67581.5
64159.6
60941.4
51869.7
53423.3
54698.1
55897.6
57144.8
58431.8
59498.9
60250.5
60257.8
59766.2
58823.4
57576.5
52792.1
50371.4
49186
48995.5
49213.3
49596
50180.7
51504.4
54714.5
63304.1
87275.4
172912
57505.6
55572.6
54399.8
53632.4
52832.1
52132.4
51612.6
51745.2
52789.2
56275.6
65952.2
90643.6
58802.4
57617.6
56190.2
54599
52733.4
50911.6
49332.4
48388.6
48359
49433.2
53301
61765.9
56322.6
54627.8
52211.6
49635.7
47125.3
45181.7
43843.9
43257.5
43379.4
44077.6
46161.9
49641.9
47273.8
48393.7
49503.5
50585.6
51530.2
52267
52775.7
52831
52055
50747.5
48938.5
46928.3
44210.7
45290.2
46324.9
47157.7
47755.2
48104.1
47893.4
46822.5
44989.8
42699.4
40235
38190.5
41576.3
42531
43295.6
43866.2
44232.9
44214.8
43437
42078.7
40306.5
38559.4
37106
36090.3
38242.5
38850.4
39369
39698.4
39767
39381
38597.2
37747.1
37217
37727.9
39871.2
42514.9
45176.3
42398.1
40272.6
39509.8
39006.5
39178.8
39700.4
40564.9
41691.1
43046.5
44864.2
46312.8
36893.2
34196.6
33596.6
34305
35160.3
36412
37708.5
39091.7
40457.7
41753.5
42883.7
43603.9
35261.7
30229.5
29658.8
31191.4
32675.4
34355.8
35924.6
37408.2
38679.6
39658.1
40378.4
40952.4
46518.6
28119.5
26742
28481.3
30150.6
31891.5
33446.1
34817.8
35841
36595.6
37166.4
37673.8
47274
48393.9
49503.7
50585.8
51530.3
52267.1
52775.8
52831.1
52055.1
50747.6
48938.6
46928.4
44210.9
45290.3
46325
47157.8
47755.2
48104.2
47893.5
46822.5
44989.8
42699.5
40235.1
38190.5
41576.3
42531.1
43295.6
43866.2
44233
44214.9
43437.1
42078.8
40306.5
38559.4
37106
36090.4
38242.6
38850.4
39369.1
39698.4
39767
39381.1
38597.3
37747.2
37217
37727.9
39871.3
42514.9
45176.3
42398.1
40272.7
39509.9
39006.6
39178.9
39700.5
40564.9
41691.1
43046.5
44864.2
46312.9
36893.3
34196.6
33596.6
34305
35160.3
36412.1
37708.6
39091.8
40457.7
41753.5
42883.7
43603.9
35261.7
30229.5
29658.8
31191.4
32675.4
34355.8
35924.6
37408.2
38679.6
39658.1
40378.4
40952.4
46518.5
28119.5
26742
28481.3
30150.6
31891.5
33446.1
34817.8
35841
36595.5
37166.4
37673.8
47274.1
48394
49503.7
50585.8
51530.3
52267.1
52775.8
52831.1
52055
50747.6
48938.5
46928.3
44210.9
45290.3
46325
47157.8
47755.2
48104.2
47893.4
46822.5
44989.8
42699.4
40235
38190.5
41576.3
42531.1
43295.6
43866.2
44232.9
44214.8
43437
42078.7
40306.4
38559.4
37106
36090.3
38242.5
38850.4
39369
39698.4
39767
39381
38597.2
37747.1
37217
37727.9
39871.2
42514.8
45176.2
42398.1
40272.6
39509.8
39006.5
39178.9
39700.5
40564.9
41691.1
43046.5
44864.2
46312.9
36893.2
34196.6
33596.6
34305
35160.3
36412
37708.5
39091.8
40457.7
41753.5
42883.7
43603.9
35261.7
30229.5
29658.8
31191.4
32675.3
34355.8
35924.6
37408.2
38679.6
39658.1
40378.3
40952.4
46518.5
28119.5
26742
28481.3
30150.6
31891.5
33446.1
34817.8
35841
36595.5
37166.4
37673.7
47274
48393.9
49503.7
50585.8
51530.3
52267.1
52775.8
52831.1
52055
50747.6
48938.5
46928.3
44210.9
45290.3
46325
47157.8
47755.2
48104.2
47893.4
46822.4
44989.8
42699.4
40235
38190.5
41576.3
42531.1
43295.6
43866.2
44232.9
44214.8
43437
42078.7
40306.4
38559.4
37105.9
36090.3
38242.5
38850.4
39369
39698.4
39766.9
39381
38597.2
37747.1
37217
37727.9
39871.2
42514.8
45176.2
42398.1
40272.6
39509.8
39006.5
39178.8
39700.4
40564.8
41691
43046.4
44864.1
46312.6
36893.2
34196.5
33596.5
34304.9
35160.3
36412
37708.5
39091.7
40457.7
41753.5
42883.7
43603.8
35261.7
30229.5
29658.8
31191.4
32675.3
34355.8
35924.5
37408.2
38679.6
39658.1
40378.4
40952.4
46518.5
28119.5
26742
28481.3
30150.6
31891.4
33446
34817.8
35841
36595.6
37166.5
37673.8
33548.5
33803
33876.3
33647.2
33009.4
31960.3
30582
29060.8
27527.5
25809.2
24966.3
27115.2
27486.8
27143
26404.4
25240.9
23493
21108.1
17961.6
13903.1
9018.07
4991.47
2797.6
1805.43
20267.6
19165.9
17543
15395.5
12583.8
9129.15
5220.05
2095.11
647.256
218.814
150.331
123.276
12664
10941.7
8747.4
6153.51
3347.57
1194.68
247.242
30.7047
19.9991
10.9028
13.1801
12.3445
5798.63
3945.02
2076.82
715.346
129.68
9.67475
8.55976
4.81263
5.54434
5.43223
5.47517
5.38698
1152.43
375.899
75.9765
3.09163
6.60482
4.80504
4.96339
4.98068
5.0101
5.05627
5.09548
5.13676
44.926
1.22983
5.48642
4.64031
4.68101
4.71537
4.75504
4.80497
4.85655
4.89849
4.9321
4.97209
4.77374
4.35597
4.44372
4.46587
4.49674
4.53433
4.57961
4.63516
4.68952
4.73687
4.77625
4.82149
4.16287
4.19384
4.22335
4.25375
4.28532
4.31997
4.35719
4.39845
4.44396
4.49258
4.54217
4.59041
3.73069
3.75637
3.78042
3.80649
3.83262
3.86331
3.89695
3.93734
3.98083
4.02908
4.07724
4.12216
3.10415
3.1071
3.10417
3.10571
3.10492
3.10911
3.11407
3.12233
3.13206
3.14257
3.15121
3.16088
3.4017
3.26275
3.27861
3.17261
3.18451
3.10513
3.11606
3.06529
3.07706
3.06136
3.0741
3.0848
96908.6
26169.6
23839.7
25545.1
27133.3
28719.9
30055.2
31117.9
31914
32512
32944.6
33263.5
75223.4
21792
20561.9
22235.9
23582.8
24793.2
25767.8
26528.6
27123.6
27492.9
27650.4
27657
60840.4
17888.3
17201.7
18540.2
19507.7
20315.8
20971.8
21464.9
21742.7
21781.8
21526.4
21035.8
48842.8
14210.2
13777.3
14635.4
15241
15729.6
16062.3
16194.9
16096
15671.3
14983.8
13996
38165
10738.8
10385
10856.1
11156.6
11296.6
11296.3
11011
10518.6
9734.37
8716.77
7400.28
28216.9
7578.53
7185.27
7410.18
7421.89
7220.28
6877.82
6305.6
5576.81
4610.64
3508.61
2274.25
19797
4775.76
4472.67
4403.82
4163.51
3723.01
3219.87
2540.22
1863.14
1116.29
549.89
155.773
12488.6
2450.6
2293.51
1892.44
1682.32
1176.01
851.017
417.54
217.153
35.6759
29.1647
1.46654
6053.54
763.274
770.915
388.38
352.655
99.8007
82.0144
6.19349
10.5264
3.36022
4.31397
4.0964
2231.37
94.1612
105.537
20.2022
24.1911
2.75283
5.09287
3.59166
3.69843
3.6622
3.68134
3.70775
553.779
5.69309
8.22138
3.25938
3.63666
3.29713
3.17026
3.17854
3.13852
3.12152
3.10994
3.11162
947.925
6.11116
5.60113
4.76288
4.63609
4.15286
4.15625
3.747
3.80458
3.52982
3.56777
3.37744
33548.6
33803
33876.3
33647.3
33009.5
31960.3
30582
29060.8
27527.5
25809.3
24966.3
27115.3
27486.8
27143
26404.5
25241
23493
21108.1
17961.6
13903.2
9018.11
4991.49
2797.61
1805.44
20267.6
19165.9
17543.1
15395.5
12583.9
9129.21
5220.09
2095.13
647.261
218.816
150.332
123.278
12664.1
10941.7
8747.45
6153.55
3347.6
1194.7
247.247
30.7056
19.9996
10.9034
13.1807
12.3451
5798.66
3945.05
2076.85
715.356
129.683
9.67516
8.55993
4.81276
5.54449
5.43241
5.47536
5.38721
1152.44
375.9
75.9811
3.09107
6.60486
4.805
4.96338
4.98067
5.01007
5.05624
5.09546
5.13674
44.9253
1.22958
5.48641
4.64025
4.68095
4.71531
4.75498
4.80491
4.85649
4.89843
4.93204
4.97203
4.77371
4.35592
4.44367
4.46582
4.4967
4.53429
4.57956
4.63512
4.68948
4.73683
4.7762
4.82144
4.16285
4.19382
4.22333
4.25373
4.2853
4.31994
4.35717
4.39842
4.44393
4.49255
4.54214
4.59038
3.73068
3.75636
3.78041
3.80648
3.83261
3.8633
3.89694
3.93733
3.98082
4.02907
4.07723
4.12215
3.10419
3.1071
3.10417
3.1057
3.10492
3.10911
3.11407
3.12233
3.13206
3.14257
3.15121
3.16088
3.4017
3.26275
3.27861
3.17261
3.18451
3.10513
3.11606
3.06529
3.07706
3.06136
3.0741
3.0848
96908.5
26169.6
23839.7
25545.1
27133.3
28719.9
30055.2
31117.9
31914
32511.9
32944.5
33263.5
75223.3
21792
20561.9
22235.9
23582.8
24793.2
25767.8
26528.6
27123.6
27492.8
27650.4
27656.9
60840.3
17888.2
17201.6
18540.2
19507.7
20315.7
20971.7
21464.8
21742.7
21781.7
21526.3
21035.7
48842.6
14210.1
13777.3
14635.3
15240.9
15729.6
16062.2
16194.9
16095.9
15671.2
14983.8
13995.9
38164.8
10738.8
10384.9
10856.1
11156.5
11296.5
11296.2
11011
10518.5
9734.32
8716.71
7400.23
28216.8
7578.49
7185.23
7410.13
7421.84
7220.24
6877.77
6305.55
5576.76
4610.6
3508.57
2274.22
19796.9
4775.72
4472.64
4403.78
4163.47
3722.97
3219.83
2540.18
1863.11
1116.27
549.878
155.768
12488.5
2450.57
2293.48
1892.41
1682.29
1175.98
850.997
417.527
217.146
35.6742
29.164
1.4666
6053.45
763.256
770.897
388.367
352.643
99.7958
82.0111
6.19308
10.5261
3.36028
4.31398
4.09642
2231.33
94.1574
105.533
20.201
24.1899
2.75283
5.09278
3.59168
3.69844
3.66222
3.68136
3.70777
553.767
5.69301
8.22117
3.25941
3.63665
3.29715
3.17027
3.17856
3.13853
3.12153
3.10996
3.11164
947.899
6.11117
5.6011
4.76287
4.63609
4.15286
4.15625
3.747
3.80458
3.52983
3.56778
3.37745
33548.6
33803
33876.3
33647.2
33009.4
31960.2
30582
29060.8
27527.5
25809.2
24966.3
27115.3
27486.7
27143
26404.4
25240.9
23492.9
21108.1
17961.5
13903.1
9018.07
4991.48
2797.6
1805.43
20267.5
19165.9
17543
15395.4
12583.8
9129.15
5220.05
2095.11
647.257
218.815
150.331
123.277
12664
10941.6
8747.39
6153.5
3347.56
1194.68
247.243
30.7058
19.9993
10.9035
13.1806
12.3451
5798.61
3945
2076.82
715.342
129.68
9.67507
8.56
4.81279
5.54452
5.43245
5.4754
5.38724
1152.42
375.891
75.9791
3.09099
6.60483
4.80504
4.96341
4.9807
5.0101
5.05627
5.09549
5.13678
44.9242
1.22956
5.4864
4.64028
4.68098
4.71534
4.75501
4.80494
4.85652
4.89846
4.93207
4.97206
4.77372
4.35594
4.4437
4.46585
4.49673
4.53432
4.57959
4.63514
4.6895
4.73685
4.77623
4.82147
4.16287
4.19385
4.22336
4.25376
4.28532
4.31997
4.35719
4.39845
4.44396
4.49258
4.54217
4.59041
3.7307
3.75638
3.78043
3.8065
3.83263
3.86332
3.89696
3.93735
3.98084
4.02909
4.07726
4.12217
3.10421
3.10712
3.10419
3.10572
3.10494
3.10913
3.11409
3.12235
3.13208
3.14259
3.15124
3.1609
3.40171
3.26277
3.27862
3.17263
3.18452
3.10515
3.11607
3.06531
3.07707
3.06137
3.07412
3.08482
96908.5
26169.6
23839.7
25545.1
27133.3
28719.9
30055.2
31117.9
31914
32511.9
32944.5
33263.4
75223.3
21792
20561.9
22235.9
23582.8
24793.2
25767.8
26528.6
27123.6
27492.8
27650.4
27656.9
60840.3
17888.2
17201.6
18540.2
19507.7
20315.7
20971.7
21464.8
21742.6
21781.7
21526.3
21035.7
48842.6
14210.1
13777.3
14635.4
15240.9
15729.6
16062.2
16194.9
16095.9
15671.2
14983.8
13995.9
38164.9
10738.8
10384.9
10856.1
11156.5
11296.5
11296.2
11011
10518.5
9734.31
8716.7
7400.22
28216.8
7578.5
7185.23
7410.14
7421.84
7220.24
6877.78
6305.55
5576.76
4610.6
3508.57
2274.22
19796.9
4775.73
4472.64
4403.78
4163.47
3722.97
3219.83
2540.18
1863.12
1116.27
549.878
155.768
12488.6
2450.58
2293.49
1892.41
1682.29
1175.98
850.998
417.527
217.147
35.6744
29.1642
1.46663
6053.47
763.257
770.898
388.367
352.643
99.796
82.0113
6.19314
10.5262
3.36029
4.314
4.09643
2231.34
94.1573
105.533
20.201
24.1899
2.75283
5.09279
3.59168
3.69845
3.66222
3.68137
3.70778
553.772
5.69303
8.22117
3.25941
3.63665
3.29715
3.17027
3.17856
3.13853
3.12153
3.10995
3.11163
947.916
6.11122
5.60111
4.76289
4.63611
4.15288
4.15626
3.74701
3.80459
3.52983
3.56778
3.37745
33548.5
33803
33876.3
33647.2
33009.4
31960.2
30582
29060.7
27527.5
25809.2
24966.3
27115.2
27486.7
27142.9
26404.4
25240.9
23492.9
21108
17961.5
13903.1
9018.06
4991.47
2797.6
1805.44
20267.5
19165.9
17543
15395.4
12583.8
9129.13
5220.04
2095.11
647.258
218.816
150.332
123.278
12664
10941.6
8747.38
6153.49
3347.56
1194.68
247.244
30.7064
19.9996
10.9039
13.1811
12.3455
5798.6
3945
2076.82
715.342
129.68
9.67529
8.56012
4.81292
5.54467
5.43261
5.47556
5.38743
1152.42
375.89
75.9795
3.09098
6.60489
4.80509
4.96346
4.98076
5.01015
5.05632
5.09555
5.13684
44.9246
1.22955
5.48644
4.6403
4.68101
4.71537
4.75503
4.80497
4.85655
4.89849
4.9321
4.97209
4.77374
4.35597
4.44372
4.46587
4.49675
4.53434
4.57961
4.63516
4.68953
4.73688
4.77625
4.8215
4.16288
4.19386
4.22337
4.25377
4.28533
4.31998
4.3572
4.39846
4.44397
4.49259
4.54218
4.59042
3.7307
3.75638
3.78043
3.8065
3.83264
3.86333
3.89696
3.93735
3.98084
4.0291
4.07726
4.12217
3.10421
3.10712
3.10418
3.10572
3.10494
3.10912
3.11408
3.12234
3.13207
3.14259
3.15123
3.1609
3.40172
3.26277
3.27862
3.17263
3.18452
3.10514
3.11607
3.0653
3.07707
3.06137
3.07411
3.08481
96908.4
26169.6
23839.7
25545.1
27133.2
28719.8
30055.2
31117.9
31914
32512
32944.6
33263.6
75223.3
21792
20561.9
22235.8
23582.8
24793.2
25767.8
26528.6
27123.6
27492.8
27650.4
27657
60840.2
17888.2
17201.6
18540.2
19507.7
20315.7
20971.7
21464.8
21742.7
21781.7
21526.4
21035.8
48842.6
14210.1
13777.3
14635.3
15240.9
15729.6
16062.2
16194.9
16095.9
15671.2
14983.8
13995.9
38164.8
10738.8
10384.9
10856.1
11156.5
11296.5
11296.2
11011
10518.5
9734.32
8716.71
7400.22
28216.8
7578.49
7185.23
7410.14
7421.85
7220.25
6877.78
6305.57
5576.77
4610.61
3508.58
2274.22
19796.9
4775.73
4472.64
4403.79
4163.48
3722.98
3219.84
2540.2
1863.13
1116.28
549.883
155.768
12488.6
2450.58
2293.49
1892.42
1682.3
1176
851.009
417.537
217.152
35.6773
29.1659
1.4675
6053.49
763.266
770.906
388.376
352.652
99.8016
82.0157
6.19557
10.5284
3.36209
4.31584
4.09831
2231.36
94.1625
105.538
20.204
24.1927
2.75449
5.09451
3.59322
3.70005
3.66387
3.68307
3.70955
553.779
5.69443
8.22297
3.26065
3.63795
3.29836
3.1715
3.17969
3.13943
3.12239
3.11066
3.11241
947.923
6.11196
5.60242
4.76374
4.63702
4.15363
4.15708
3.74777
3.80536
3.53056
3.56851
3.37813
)
;

boundaryField
{
    rotor
    {
        type            epsilonWallFunction;
        blending        stepwise;
        value           nonuniform List<scalar> 
192
(
2067.03
1839.45
2286.7
2281.65
2231.35
1966.81
1823.12
2605.93
13620.9
34143.9
44106.3
49200.3
53415.7
55559.2
56828.7
57025.1
57095.6
54459.6
50628.8
44540.8
37023.1
28214.9
17935.5
21728.7
2067.06
1839.47
2286.72
2281.67
2231.36
1966.82
1823.13
2605.96
13621.2
34144.2
44106.5
49200.5
53415.9
55559.4
56828.9
57025.3
57095.8
54459.8
50629
44540.9
37023.2
28215
17935.5
21728.8
2067.07
1839.48
2286.73
2281.69
2231.38
1966.84
1823.15
2605.98
13621.2
34144.1
44106.4
49200.4
53415.8
55559.4
56828.8
57025.2
57095.7
54459.7
50628.9
44540.9
37023.1
28214.9
17935.5
21728.7
2067.04
1839.46
2286.7
2281.66
2231.35
1966.81
1823.12
2605.94
13621
34143.9
44106.3
49200.3
53415.7
55559.2
56828.7
57025.1
57095.6
54459.6
50628.8
44540.8
37023.1
28214.9
17935.5
21728.6
2067.03
5597.1
7939.6
11153.5
13168.4
14526.3
14961.7
16166.3
18134.2
22313.6
25793
97196
21728.6
72983.2
115796
146677
172791
196423
219671
247200
280301
315661
358211
416086
2067.06
5597.16
7939.68
11153.6
13168.6
14526.4
14961.8
16166.4
18134.3
22313.6
25793
97196
21728.7
72983.4
115796
146677
172791
196423
219671
247200
280301
315662
358211
416086
2067.07
5597.19
7939.73
11153.7
13168.7
14526.5
14961.9
16166.5
18134.4
22313.6
25793.1
97196.2
21728.8
72983.5
115796
146677
172791
196423
219671
247200
280301
315662
358212
416087
2067.04
5597.13
7939.64
11153.5
13168.5
14526.4
14961.8
16166.4
18134.3
22313.5
25793
97196
21728.7
72983.2
115796
146677
172791
196423
219671
247200
280301
315662
358211
416086
)
;
    }
    stator
    {
        type            epsilonWallFunction;
        blending        stepwise;
        value           nonuniform List<scalar> 
192
(
3.4017
3.26275
3.27861
3.17261
3.18451
3.10513
3.11606
3.06529
3.07706
3.06136
3.0741
3.0848
947.925
6.11116
5.60113
4.76288
4.63609
4.15286
4.15625
3.747
3.80458
3.52982
3.56777
3.37744
3.4017
3.26275
3.27861
3.17261
3.18451
3.10513
3.11606
3.06529
3.07706
3.06136
3.0741
3.0848
947.899
6.11117
5.6011
4.76287
4.63609
4.15286
4.15625
3.747
3.80458
3.52983
3.56778
3.37745
3.40171
3.26277
3.27862
3.17263
3.18452
3.10515
3.11607
3.06531
3.07707
3.06137
3.07412
3.08482
947.916
6.11122
5.60111
4.76289
4.63611
4.15288
4.15626
3.74701
3.80459
3.52983
3.56778
3.37745
3.40172
3.26277
3.27862
3.17263
3.18452
3.10514
3.11607
3.0653
3.07707
3.06137
3.07411
3.08481
947.923
6.11196
5.60242
4.76374
4.63702
4.15363
4.15708
3.74777
3.80536
3.53056
3.56851
3.37813
96908.6
75223.4
60840.4
48842.8
38165
28216.9
19797
12488.6
6053.54
2231.37
553.779
947.925
27115.2
1805.43
123.276
12.3445
5.38698
5.13676
4.97209
4.82149
4.59041
4.12216
3.16088
3.0848
96908.5
75223.3
60840.3
48842.6
38164.8
28216.8
19796.9
12488.5
6053.45
2231.33
553.767
947.899
27115.3
1805.44
123.278
12.3451
5.38721
5.13674
4.97203
4.82144
4.59038
4.12215
3.16088
3.0848
96908.5
75223.3
60840.3
48842.6
38164.9
28216.8
19796.9
12488.6
6053.47
2231.34
553.772
947.916
27115.3
1805.43
123.277
12.3451
5.38724
5.13678
4.97206
4.82147
4.59041
4.12217
3.1609
3.08482
96908.4
75223.3
60840.2
48842.6
38164.8
28216.8
19796.9
12488.6
6053.49
2231.36
553.779
947.923
27115.2
1805.44
123.278
12.3455
5.38743
5.13684
4.97209
4.8215
4.59042
4.12217
3.1609
3.08481
)
;
    }
    front
    {
        type            empty;
    }
    back
    {
        type            empty;
    }
}


// ************************************************************************* //
