/*--------------------------------*- C++ -*----------------------------------*\
| =========                 |                                                 |
| \\      /  F ield         | OpenFOAM: The Open Source CFD Toolbox           |
|  \\    /   O peration     | Version:  2212                                  |
|   \\  /    A nd           | Website:  www.openfoam.com                      |
|    \\/     M anipulation  |                                                 |
\*---------------------------------------------------------------------------*/
FoamFile
{
    version     2.0;
    format      ascii;
    arch        "LSB;label=32;scalar=64";
    class       volScalarField;
    location    "0.09";
    object      nut;
}
// * * * * * * * * * * * * * * * * * * * * * * * * * * * * * * * * * * * * * //

dimensions      [0 2 -1 0 0 0 0];

internalField   nonuniform List<scalar> 
3072
(
0.000239184
0.000515334
0.000554109
0.000553702
0.000549602
0.000526963
0.000513805
0.00057878
0.00100445
0.00136447
0.00148603
0.00154116
0.000386554
0.00111784
0.00158577
0.00177727
0.00152263
0.000885963
0.000794129
0.00140834
0.00172256
0.00276138
0.00377365
0.00526311
0.000496226
0.0018422
0.00248526
0.00259285
0.00224343
0.00207519
0.0020606
0.00292773
0.00445735
0.00654218
0.00874393
0.010873
0.000627319
0.00289609
0.00315609
0.00274359
0.00260237
0.00262271
0.00349182
0.0056588
0.00801224
0.01067
0.0131868
0.0154131
0.000740895
0.003436
0.00347055
0.00314144
0.00313806
0.00384954
0.00585043
0.00864513
0.0113454
0.0140773
0.0165946
0.0188146
0.000848174
0.00388751
0.00394174
0.00372603
0.00415748
0.00586924
0.00856574
0.0112971
0.0139657
0.0165891
0.019004
0.0211627
0.000942115
0.004401
0.00478291
0.00486512
0.00599311
0.00840014
0.0109656
0.0134919
0.0159753
0.0183426
0.020581
0.0226363
0.00105658
0.00554824
0.00659844
0.00749539
0.00934395
0.0114425
0.0135688
0.0157128
0.0178679
0.0199217
0.0218571
0.0236441
0.0011932
0.00751431
0.00987777
0.0118496
0.0136071
0.0152034
0.0167485
0.018295
0.0198713
0.0214109
0.0229002
0.0243234
0.00138289
0.00903773
0.0125436
0.0149543
0.0166989
0.0180358
0.0191853
0.0202611
0.0213064
0.0223482
0.0234098
0.0245045
0.00156289
0.00842792
0.0135228
0.0164565
0.0183905
0.0195834
0.0206677
0.0214418
0.022147
0.022852
0.0235963
0.0244084
0.00260883
0.00793717
0.0142311
0.01764
0.0193149
0.020797
0.0217332
0.022401
0.0229355
0.0234393
0.0239725
0.0245782
0.00158398
0.00160489
0.00161702
0.00161888
0.00161955
0.00159423
0.00155594
0.00149089
0.00140179
0.00128042
0.00110094
0.000523955
0.00673613
0.00808924
0.00903545
0.00944031
0.00925962
0.00877148
0.0079304
0.00677439
0.00524197
0.00320459
0.00156716
0.000909837
0.0127064
0.0141063
0.0149826
0.0153222
0.0151349
0.0144646
0.0132656
0.0115224
0.00920078
0.00630415
0.00280967
0.00121239
0.0172982
0.0187755
0.0198019
0.020347
0.0203703
0.019819
0.0186136
0.0166478
0.0137496
0.00993022
0.0049507
0.00148072
0.0207253
0.0222934
0.0234892
0.0242772
0.0245972
0.0243415
0.0233593
0.0214384
0.01821
0.013557
0.00729441
0.00174751
0.0230616
0.0246842
0.0260096
0.0270053
0.027613
0.0277395
0.0272043
0.0256822
0.0226787
0.0175039
0.0101235
0.00202068
0.0244756
0.026094
0.0274858
0.0286345
0.0295163
0.0300721
0.0301082
0.0292114
0.0266846
0.0215086
0.0131303
0.00230693
0.0252794
0.0267737
0.028123
0.0293286
0.0304154
0.031367
0.032038
0.0319958
0.0302965
0.025371
0.0160601
0.0026225
0.0256489
0.0268815
0.0280973
0.0292976
0.0304922
0.0317243
0.03293
0.0337764
0.0332199
0.0290138
0.0187548
0.00297226
0.025579
0.0265906
0.027622
0.0287976
0.0300957
0.0315041
0.0330399
0.0345946
0.0352593
0.0324376
0.0218952
0.00334456
0.0253614
0.0264455
0.0273484
0.0282944
0.0295955
0.0311128
0.0327669
0.0346419
0.0362266
0.0353181
0.025665
0.0037567
0.0253519
0.0264971
0.0275365
0.028368
0.0294363
0.0308926
0.0324548
0.0343031
0.0362219
0.0369718
0.0296492
0.00423601
0.000239185
0.000515336
0.000554111
0.000553703
0.000549603
0.000526964
0.000513806
0.000578783
0.00100446
0.00136447
0.00148603
0.00154116
0.000386555
0.00111785
0.00158577
0.00177727
0.00152262
0.000885958
0.000794133
0.00140835
0.00172257
0.00276139
0.00377367
0.00526314
0.000496227
0.0018422
0.00248526
0.00259284
0.00224341
0.00207519
0.0020606
0.00292775
0.00445738
0.00654223
0.00874397
0.010873
0.000627321
0.0028961
0.00315608
0.00274359
0.00260238
0.00262272
0.00349185
0.00565885
0.0080123
0.0106701
0.0131869
0.0154131
0.000740898
0.003436
0.00347055
0.00314145
0.00313807
0.00384957
0.0058505
0.0086452
0.0113455
0.0140773
0.0165946
0.0188147
0.000848176
0.00388752
0.00394175
0.00372605
0.00415751
0.00586932
0.00856581
0.0112972
0.0139658
0.0165892
0.0190041
0.0211628
0.000942117
0.00440101
0.00478294
0.00486517
0.0059932
0.00840024
0.0109656
0.013492
0.0159754
0.0183427
0.0205811
0.0226364
0.00105658
0.00554827
0.00659848
0.00749547
0.00934405
0.0114426
0.0135689
0.0157129
0.017868
0.0199218
0.0218572
0.0236442
0.0011932
0.00751433
0.00987783
0.0118497
0.0136072
0.0152035
0.0167486
0.0182951
0.0198714
0.021411
0.0229003
0.0243235
0.00138289
0.00903773
0.0125436
0.0149543
0.0166989
0.0180359
0.0191854
0.0202611
0.0213065
0.0223482
0.0234099
0.0245046
0.00156289
0.00842793
0.0135228
0.0164565
0.0183905
0.0195835
0.0206677
0.0214419
0.022147
0.022852
0.0235963
0.0244084
0.00260883
0.00793717
0.0142311
0.01764
0.019315
0.020797
0.0217333
0.022401
0.0229355
0.0234393
0.0239725
0.0245782
0.00158398
0.00160489
0.00161702
0.00161888
0.00161955
0.00159423
0.00155594
0.00149089
0.00140179
0.00128042
0.00110094
0.000523955
0.00673616
0.00808927
0.00903548
0.00944034
0.00925965
0.0087715
0.00793042
0.0067744
0.00524198
0.0032046
0.00156717
0.000909838
0.0127064
0.0141063
0.0149827
0.0153223
0.0151349
0.0144647
0.0132657
0.0115224
0.0092008
0.00630416
0.00280968
0.0012124
0.0172982
0.0187756
0.019802
0.0203471
0.0203704
0.0198191
0.0186136
0.0166478
0.0137497
0.00993023
0.00495071
0.00148072
0.0207254
0.0222935
0.0234893
0.0242773
0.0245973
0.0243416
0.0233594
0.0214384
0.01821
0.013557
0.00729442
0.00174751
0.0230617
0.0246843
0.0260097
0.0270054
0.0276131
0.0277395
0.0272044
0.0256822
0.0226787
0.0175039
0.0101235
0.00202068
0.0244757
0.0260941
0.0274859
0.0286346
0.0295164
0.0300722
0.0301083
0.0292114
0.0266846
0.0215086
0.0131303
0.00230693
0.0252795
0.0267738
0.0281231
0.0293287
0.0304155
0.0313671
0.0320381
0.0319959
0.0302966
0.0253711
0.0160601
0.0026225
0.0256489
0.0268816
0.0280974
0.0292977
0.0304923
0.0317244
0.0329301
0.0337765
0.03322
0.0290139
0.0187548
0.00297226
0.0255791
0.0265907
0.0276221
0.0287977
0.0300958
0.0315042
0.03304
0.0345946
0.0352594
0.0324376
0.0218952
0.00334456
0.0253615
0.0264455
0.0273485
0.0282945
0.0295956
0.0311129
0.032767
0.034642
0.0362267
0.0353182
0.025665
0.0037567
0.0253519
0.0264972
0.0275365
0.0283681
0.0294364
0.0308927
0.0324549
0.0343032
0.036222
0.0369718
0.0296492
0.00423602
0.000239185
0.000515337
0.000554112
0.000553704
0.000549605
0.000526966
0.000513807
0.000578784
0.00100446
0.00136447
0.00148603
0.00154116
0.000386556
0.00111785
0.00158578
0.00177728
0.00152263
0.000885963
0.000794134
0.00140835
0.00172257
0.00276139
0.00377367
0.00526314
0.000496228
0.00184221
0.00248527
0.00259286
0.00224343
0.00207519
0.0020606
0.00292776
0.00445739
0.00654223
0.00874397
0.010873
0.000627323
0.00289611
0.0031561
0.0027436
0.00260238
0.00262272
0.00349186
0.00565886
0.00801231
0.0106701
0.0131869
0.0154131
0.000740899
0.00343602
0.00347057
0.00314146
0.00313808
0.00384957
0.00585051
0.00864521
0.0113455
0.0140774
0.0165946
0.0188147
0.000848177
0.00388753
0.00394177
0.00372606
0.00415752
0.00586932
0.00856583
0.0112972
0.0139658
0.0165892
0.0190041
0.0211628
0.000942119
0.00440102
0.00478295
0.00486518
0.0059932
0.00840025
0.0109657
0.013492
0.0159754
0.0183427
0.0205811
0.0226364
0.00105659
0.00554828
0.0065985
0.00749548
0.00934407
0.0114426
0.0135689
0.0157129
0.0178681
0.0199218
0.0218572
0.0236442
0.0011932
0.00751434
0.00987784
0.0118497
0.0136072
0.0152035
0.0167487
0.0182951
0.0198714
0.0214111
0.0229004
0.0243235
0.00138289
0.00903774
0.0125437
0.0149543
0.0166989
0.0180359
0.0191854
0.0202611
0.0213065
0.0223483
0.0234099
0.0245046
0.00156289
0.00842793
0.0135229
0.0164566
0.0183905
0.0195835
0.0206678
0.0214419
0.022147
0.022852
0.0235964
0.0244084
0.00260883
0.00793717
0.0142311
0.01764
0.019315
0.0207971
0.0217333
0.022401
0.0229355
0.0234393
0.0239726
0.0245783
0.00158398
0.00160489
0.00161702
0.00161888
0.00161955
0.00159423
0.00155594
0.00149089
0.00140179
0.00128042
0.00110094
0.000523954
0.00673616
0.00808927
0.00903548
0.00944034
0.00925965
0.0087715
0.00793041
0.0067744
0.00524197
0.00320459
0.00156716
0.000909837
0.0127064
0.0141063
0.0149826
0.0153223
0.0151349
0.0144647
0.0132657
0.0115224
0.00920079
0.00630415
0.00280967
0.00121239
0.0172982
0.0187756
0.019802
0.0203471
0.0203704
0.0198191
0.0186136
0.0166478
0.0137497
0.00993023
0.00495071
0.00148072
0.0207254
0.0222935
0.0234893
0.0242773
0.0245972
0.0243416
0.0233594
0.0214384
0.01821
0.013557
0.00729441
0.00174751
0.0230617
0.0246843
0.0260097
0.0270054
0.0276131
0.0277395
0.0272044
0.0256822
0.0226787
0.0175039
0.0101235
0.00202068
0.0244757
0.0260941
0.0274859
0.0286346
0.0295164
0.0300722
0.0301083
0.0292114
0.0266846
0.0215086
0.0131303
0.00230693
0.0252795
0.0267738
0.0281231
0.0293286
0.0304155
0.0313671
0.0320381
0.0319959
0.0302966
0.0253711
0.0160601
0.0026225
0.025649
0.0268816
0.0280974
0.0292977
0.0304923
0.0317244
0.0329301
0.0337765
0.03322
0.0290138
0.0187548
0.00297226
0.0255791
0.0265907
0.0276221
0.0287977
0.0300958
0.0315042
0.03304
0.0345946
0.0352594
0.0324376
0.0218952
0.00334456
0.0253615
0.0264455
0.0273485
0.0282945
0.0295955
0.0311128
0.032767
0.0346419
0.0362267
0.0353182
0.025665
0.0037567
0.025352
0.0264972
0.0275365
0.0283681
0.0294364
0.0308926
0.0324549
0.0343032
0.0362219
0.0369718
0.0296492
0.00423601
0.000239184
0.000515335
0.00055411
0.000553702
0.000549603
0.000526963
0.000513805
0.000578781
0.00100445
0.00136447
0.00148602
0.00154116
0.000386555
0.00111785
0.00158577
0.00177727
0.00152263
0.00088596
0.000794129
0.00140834
0.00172256
0.00276138
0.00377366
0.00526312
0.000496227
0.0018422
0.00248526
0.00259284
0.00224342
0.00207519
0.0020606
0.00292774
0.00445736
0.0065422
0.00874394
0.010873
0.00062732
0.00289609
0.00315608
0.00274359
0.00260237
0.00262271
0.00349183
0.00565882
0.00801227
0.01067
0.0131868
0.0154131
0.000740896
0.003436
0.00347055
0.00314144
0.00313806
0.00384955
0.00585047
0.00864516
0.0113454
0.0140773
0.0165946
0.0188147
0.000848175
0.00388751
0.00394174
0.00372604
0.0041575
0.00586928
0.00856578
0.0112972
0.0139657
0.0165891
0.0190041
0.0211627
0.000942116
0.00440101
0.00478293
0.00486515
0.00599317
0.0084002
0.0109656
0.0134919
0.0159754
0.0183426
0.0205811
0.0226364
0.00105658
0.00554826
0.00659847
0.00749545
0.00934402
0.0114425
0.0135688
0.0157128
0.017868
0.0199217
0.0218572
0.0236442
0.0011932
0.00751433
0.00987782
0.0118497
0.0136072
0.0152035
0.0167486
0.018295
0.0198713
0.021411
0.0229003
0.0243235
0.00138289
0.00903773
0.0125436
0.0149543
0.0166989
0.0180359
0.0191854
0.0202611
0.0213065
0.0223482
0.0234099
0.0245046
0.00156288
0.00842792
0.0135228
0.0164565
0.0183905
0.0195835
0.0206677
0.0214418
0.022147
0.022852
0.0235963
0.0244084
0.00260883
0.00793716
0.0142311
0.01764
0.019315
0.020797
0.0217333
0.022401
0.0229355
0.0234393
0.0239725
0.0245782
0.00158398
0.00160489
0.00161702
0.00161888
0.00161955
0.00159423
0.00155594
0.00149089
0.00140179
0.00128042
0.00110094
0.000523954
0.00673614
0.00808925
0.00903546
0.00944032
0.00925963
0.00877148
0.0079304
0.00677439
0.00524197
0.00320459
0.00156716
0.000909837
0.0127064
0.0141063
0.0149826
0.0153222
0.0151349
0.0144647
0.0132656
0.0115224
0.00920079
0.00630415
0.00280967
0.00121239
0.0172982
0.0187755
0.019802
0.020347
0.0203703
0.019819
0.0186136
0.0166478
0.0137496
0.00993022
0.00495071
0.00148072
0.0207253
0.0222935
0.0234892
0.0242772
0.0245972
0.0243416
0.0233594
0.0214384
0.01821
0.013557
0.00729441
0.00174751
0.0230617
0.0246843
0.0260097
0.0270053
0.0276131
0.0277395
0.0272044
0.0256822
0.0226787
0.0175039
0.0101235
0.00202068
0.0244757
0.0260941
0.0274858
0.0286346
0.0295164
0.0300722
0.0301083
0.0292114
0.0266846
0.0215086
0.0131303
0.00230693
0.0252794
0.0267738
0.028123
0.0293286
0.0304154
0.031367
0.032038
0.0319958
0.0302966
0.025371
0.0160601
0.0026225
0.0256489
0.0268815
0.0280973
0.0292976
0.0304922
0.0317244
0.0329301
0.0337765
0.0332199
0.0290138
0.0187548
0.00297226
0.0255791
0.0265907
0.027622
0.0287977
0.0300958
0.0315041
0.0330399
0.0345946
0.0352593
0.0324376
0.0218952
0.00334456
0.0253615
0.0264455
0.0273484
0.0282944
0.0295955
0.0311128
0.0327669
0.0346419
0.0362266
0.0353181
0.025665
0.0037567
0.0253519
0.0264972
0.0275365
0.0283681
0.0294363
0.0308926
0.0324548
0.0343031
0.0362219
0.0369718
0.0296492
0.00423601
0.0156998
0.0162854
0.0177475
0.0193001
0.0206544
0.0219144
0.0227483
0.0233569
0.0238144
0.0242305
0.0246592
0.0251461
0.0253474
0.0231153
0.0223955
0.0224646
0.0229054
0.023354
0.023787
0.0243431
0.0248454
0.0252491
0.0256435
0.0260808
0.0320015
0.0294586
0.0276101
0.0265156
0.0259866
0.0257656
0.0258369
0.0259954
0.0261726
0.0263879
0.0268037
0.0273057
0.0340024
0.0322422
0.0306298
0.0292914
0.0284205
0.0278937
0.027658
0.0275768
0.0277494
0.0279763
0.0283063
0.0288182
0.0258582
0.0269893
0.0280686
0.0289136
0.0298786
0.031107
0.0324139
0.0339592
0.0358016
0.0379749
0.0381174
0.0175933
0.0268886
0.0279579
0.0289451
0.0298455
0.0307981
0.0316655
0.0326358
0.0337307
0.0351562
0.037189
0.0407563
0.0294866
0.0282917
0.0291284
0.0299912
0.0307653
0.0315317
0.032197
0.0329786
0.0337621
0.0347031
0.0361088
0.0393898
0.0351787
0.029855
0.0305934
0.0312773
0.0319055
0.0324009
0.0329033
0.0334702
0.0339774
0.0346078
0.0353297
0.0370891
0.0360257
0.0156998
0.0162854
0.0177475
0.0193001
0.0206544
0.0219145
0.0227483
0.023357
0.0238144
0.0242305
0.0246592
0.0251461
0.0253473
0.0231153
0.0223955
0.0224646
0.0229054
0.023354
0.023787
0.0243431
0.0248455
0.0252491
0.0256435
0.0260808
0.0320015
0.0294586
0.0276102
0.0265157
0.0259866
0.0257657
0.0258369
0.0259954
0.0261727
0.0263879
0.0268037
0.0273057
0.0340024
0.0322422
0.0306299
0.0292915
0.0284206
0.0278938
0.027658
0.0275768
0.0277494
0.0279763
0.0283063
0.0288182
0.0258582
0.0269893
0.0280686
0.0289137
0.0298786
0.031107
0.0324139
0.0339593
0.0358016
0.0379749
0.0381174
0.0175933
0.0268887
0.027958
0.0289451
0.0298455
0.0307981
0.0316656
0.0326358
0.0337307
0.0351563
0.037189
0.0407564
0.0294867
0.0282917
0.0291284
0.0299912
0.0307654
0.0315317
0.0321971
0.0329786
0.0337622
0.0347031
0.0361089
0.0393899
0.0351787
0.029855
0.0305934
0.0312773
0.0319056
0.0324009
0.0329033
0.0334702
0.0339774
0.0346079
0.0353297
0.0370891
0.0360257
0.0156998
0.0162854
0.0177475
0.0193002
0.0206544
0.0219145
0.0227483
0.023357
0.0238144
0.0242305
0.0246592
0.0251462
0.0253474
0.0231153
0.0223955
0.0224646
0.0229055
0.023354
0.023787
0.0243432
0.0248455
0.0252491
0.0256435
0.0260808
0.0320015
0.0294586
0.0276102
0.0265157
0.0259866
0.0257657
0.0258369
0.0259955
0.0261727
0.026388
0.0268038
0.0273057
0.0340024
0.0322423
0.0306299
0.0292915
0.0284206
0.0278938
0.0276581
0.0275768
0.0277494
0.0279763
0.0283063
0.0288182
0.0258582
0.0269893
0.0280686
0.0289137
0.0298786
0.031107
0.0324139
0.0339593
0.0358016
0.0379749
0.0381174
0.0175933
0.0268887
0.027958
0.0289451
0.0298455
0.0307981
0.0316656
0.0326358
0.0337307
0.0351562
0.037189
0.0407563
0.0294866
0.0282917
0.0291284
0.0299912
0.0307653
0.0315317
0.0321971
0.0329786
0.0337621
0.0347031
0.0361088
0.0393898
0.0351787
0.029855
0.0305934
0.0312773
0.0319055
0.0324009
0.0329033
0.0334702
0.0339774
0.0346078
0.0353297
0.0370891
0.0360257
0.0156998
0.0162854
0.0177475
0.0193001
0.0206544
0.0219145
0.0227483
0.023357
0.0238144
0.0242305
0.0246592
0.0251461
0.0253473
0.0231153
0.0223955
0.0224646
0.0229054
0.023354
0.023787
0.0243431
0.0248455
0.0252491
0.0256435
0.0260808
0.0320015
0.0294586
0.0276102
0.0265157
0.0259866
0.0257657
0.0258369
0.0259955
0.0261727
0.0263879
0.0268037
0.0273057
0.0340024
0.0322422
0.0306299
0.0292915
0.0284206
0.0278938
0.027658
0.0275768
0.0277494
0.0279763
0.0283063
0.0288182
0.0258582
0.0269893
0.0280686
0.0289136
0.0298786
0.031107
0.0324139
0.0339593
0.0358016
0.0379748
0.0381173
0.0175933
0.0268886
0.027958
0.0289451
0.0298455
0.0307981
0.0316655
0.0326358
0.0337307
0.0351562
0.037189
0.0407563
0.0294865
0.0282917
0.0291284
0.0299912
0.0307653
0.0315317
0.032197
0.0329786
0.0337621
0.034703
0.0361088
0.0393898
0.0351786
0.029855
0.0305934
0.0312773
0.0319055
0.0324009
0.0329033
0.0334701
0.0339774
0.0346078
0.0353296
0.0370891
0.0360256
0.03165
0.0305076
0.0295514
0.028918
0.0285606
0.0284215
0.0283649
0.0284247
0.0287258
0.0291313
0.0298312
0.0308984
0.0301014
0.0293685
0.0287789
0.028438
0.0282276
0.0280307
0.0277897
0.0276671
0.0275959
0.0276326
0.0280262
0.0290705
0.0286062
0.0280388
0.0275907
0.0272369
0.0267581
0.026158
0.0255393
0.0248118
0.0239708
0.0231299
0.0226074
0.0231365
0.0267618
0.0262561
0.0256172
0.0249206
0.0240012
0.0229442
0.0216862
0.0201543
0.018382
0.0165
0.0148321
0.0138788
0.0322256
0.0331068
0.0331833
0.0334265
0.0335967
0.0338026
0.0339977
0.0341628
0.0343276
0.0344923
0.034084
0.0331691
0.0307499
0.0332505
0.0330904
0.0331509
0.0332045
0.0332577
0.0332874
0.0332599
0.0330736
0.0326593
0.0321345
0.0312139
0.025666
0.0315052
0.0319604
0.0320012
0.0320264
0.0320259
0.0319714
0.0317074
0.0313253
0.030925
0.0303922
0.0294294
0.0147566
0.0285575
0.0303173
0.0304026
0.030423
0.0303252
0.0300975
0.0297437
0.0294528
0.0290499
0.0283921
0.0274841
0.0316501
0.0305077
0.0295515
0.028918
0.0285607
0.0284215
0.0283649
0.0284247
0.0287258
0.0291313
0.0298312
0.0308984
0.0301015
0.0293685
0.0287789
0.0284381
0.0282276
0.0280308
0.0277897
0.0276671
0.0275959
0.0276326
0.0280262
0.0290705
0.0286062
0.0280388
0.0275908
0.0272369
0.0267581
0.026158
0.0255393
0.0248118
0.0239708
0.0231299
0.0226074
0.0231365
0.0267618
0.0262561
0.0256173
0.0249206
0.0240012
0.0229443
0.0216862
0.0201543
0.018382
0.0165
0.0148322
0.0138788
0.0322256
0.0331068
0.0331834
0.0334266
0.0335968
0.0338026
0.0339978
0.0341628
0.0343277
0.0344923
0.034084
0.0331691
0.03075
0.0332505
0.0330904
0.0331509
0.0332045
0.0332577
0.0332875
0.0332599
0.0330736
0.0326593
0.0321345
0.0312139
0.025666
0.0315052
0.0319604
0.0320012
0.0320264
0.0320259
0.0319714
0.0317074
0.0313253
0.030925
0.0303922
0.0294294
0.0147566
0.0285575
0.0303173
0.0304026
0.030423
0.0303252
0.0300975
0.0297437
0.0294528
0.0290499
0.0283921
0.0274841
0.0316501
0.0305077
0.0295515
0.028918
0.0285607
0.0284215
0.0283649
0.0284247
0.0287258
0.0291313
0.0298312
0.0308984
0.0301015
0.0293685
0.0287789
0.0284381
0.0282276
0.0280308
0.0277897
0.0276671
0.0275959
0.0276326
0.0280262
0.0290705
0.0286062
0.0280388
0.0275908
0.0272369
0.0267581
0.026158
0.0255393
0.0248118
0.0239708
0.0231299
0.0226074
0.0231365
0.0267618
0.0262561
0.0256173
0.0249206
0.0240012
0.0229442
0.0216862
0.0201543
0.018382
0.0165
0.0148322
0.0138788
0.0322256
0.0331068
0.0331833
0.0334265
0.0335967
0.0338026
0.0339977
0.0341628
0.0343276
0.0344923
0.034084
0.0331691
0.0307499
0.0332505
0.0330904
0.0331509
0.0332045
0.0332577
0.0332874
0.0332599
0.0330736
0.0326593
0.0321345
0.0312138
0.025666
0.0315052
0.0319604
0.0320012
0.0320264
0.0320259
0.0319713
0.0317074
0.0313253
0.030925
0.0303922
0.0294294
0.0147566
0.0285575
0.0303173
0.0304026
0.030423
0.0303251
0.0300975
0.0297437
0.0294528
0.0290499
0.0283921
0.0274841
0.0316501
0.0305077
0.0295515
0.028918
0.0285607
0.0284215
0.0283649
0.0284247
0.0287258
0.0291313
0.0298312
0.0308984
0.0301015
0.0293685
0.0287789
0.0284381
0.0282276
0.0280307
0.0277897
0.0276671
0.0275959
0.0276326
0.0280262
0.0290705
0.0286062
0.0280388
0.0275908
0.0272369
0.0267581
0.026158
0.0255393
0.0248118
0.0239708
0.0231299
0.0226074
0.0231365
0.0267618
0.0262561
0.0256173
0.0249206
0.0240012
0.0229442
0.0216862
0.0201543
0.018382
0.0165
0.0148321
0.0138788
0.0322256
0.0331068
0.0331833
0.0334265
0.0335967
0.0338026
0.0339977
0.0341627
0.0343276
0.0344922
0.034084
0.0331691
0.0307499
0.0332505
0.0330904
0.0331509
0.0332045
0.0332577
0.0332874
0.0332599
0.0330735
0.0326593
0.0321345
0.0312139
0.025666
0.0315052
0.0319603
0.0320012
0.0320264
0.0320258
0.0319713
0.0317073
0.0313252
0.0309249
0.0303921
0.0294294
0.0147566
0.0285574
0.0303172
0.0304026
0.030423
0.0303251
0.0300975
0.0297437
0.0294528
0.0290498
0.028392
0.0274841
0.0244094
0.0236674
0.0226962
0.0216092
0.0202764
0.0186976
0.0167905
0.0145111
0.011865
0.00893492
0.00545851
0.00282692
0.0213417
0.0202945
0.0190204
0.0175593
0.0158102
0.013764
0.0113618
0.00861149
0.00548832
0.00266665
0.00123249
0.00119969
0.0176368
0.0162819
0.0146829
0.0128399
0.0106802
0.00820556
0.00529033
0.00238272
0.000746053
0.000379561
0.000403324
0.000512626
0.0133437
0.0116663
0.00972766
0.00749637
0.00483912
0.00214346
0.000531069
0.000197709
0.000168387
0.00026594
0.000228016
0.00024851
0.00852142
0.00648642
0.00411576
0.00179283
0.00046135
0.000184906
0.000171827
0.000220483
0.000205019
0.00020369
0.000199771
0.000196515
0.00313722
0.00130811
0.000398215
0.000296199
0.000196731
0.000214153
0.000210713
0.000208511
0.000207181
0.000204497
0.000203072
0.000201398
0.000309026
0.000790701
0.00021098
0.000218592
0.000217686
0.000216412
0.000215099
0.000213161
0.000211022
0.000209395
0.000208482
0.00020719
0.00022142
0.000226176
0.000222706
0.000222628
0.000222033
0.000221139
0.000219739
0.000217957
0.000216246
0.000215001
0.000214183
0.000213039
0.000226148
0.000225641
0.000225269
0.000224932
0.00022452
0.000223979
0.000223208
0.000222194
0.00022095
0.00021959
0.000218396
0.000217487
0.0002236
0.000223491
0.000223416
0.000223404
0.000223268
0.000223009
0.000222472
0.000221684
0.000220627
0.00021945
0.000218346
0.000217524
0.000190653
0.000192132
0.000193942
0.000195498
0.000197201
0.000198643
0.000200049
0.000201314
0.000202542
0.000203773
0.000205138
0.000206208
6.12913e-05
6.04451e-05
6.05429e-05
5.98833e-05
5.9958e-05
5.94557e-05
5.95253e-05
5.92003e-05
5.92759e-05
5.91749e-05
5.9257e-05
5.93256e-05
0.00432212
0.0246899
0.028451
0.0284627
0.0284007
0.0281446
0.0278648
0.0276377
0.0273329
0.0268365
0.0260277
0.0251618
0.00415903
0.0226776
0.0264203
0.0260938
0.0259146
0.0256915
0.0255113
0.0252711
0.0248284
0.0241168
0.0232138
0.0222669
0.00405109
0.0207178
0.023801
0.0234374
0.0232811
0.0231308
0.0228693
0.022455
0.0217844
0.0208607
0.0198726
0.0188029
0.00393054
0.0185297
0.020837
0.0207074
0.0205313
0.0202191
0.0198048
0.0190971
0.0182047
0.0171815
0.0160525
0.0147846
0.00377429
0.0161842
0.017906
0.0177657
0.0174438
0.0169052
0.016178
0.0152984
0.0142689
0.0130847
0.0117587
0.0102488
0.00355355
0.0137859
0.0150337
0.0145147
0.0139162
0.0131359
0.0122456
0.011168
0.00999327
0.00860964
0.0070297
0.00518125
0.00328389
0.0108318
0.0118759
0.0106798
0.0101585
0.00909248
0.00806929
0.00670373
0.00528525
0.00362931
0.00210431
0.000824931
0.00292575
0.00761871
0.00831816
0.00664652
0.00614537
0.00457532
0.00353574
0.00210207
0.00117243
0.00043988
0.000243931
0.000489771
0.00238499
0.00376268
0.0041495
0.00247428
0.00215652
0.000901537
0.000637732
0.000349047
0.000233822
0.000241823
0.000224899
0.000227854
0.00177279
0.000877736
0.00101527
0.000402447
0.000365685
0.000281138
0.00022041
0.000218868
0.00022438
0.000223881
0.000224355
0.000223926
0.00115385
0.00015432
0.000186875
0.000156025
0.000168925
0.000165931
0.000179039
0.000179484
0.000182546
0.000184883
0.000186998
0.000188522
0.000400336
7.45088e-05
7.23755e-05
6.85682e-05
6.79544e-05
6.55062e-05
6.5524e-05
6.32986e-05
6.36212e-05
6.20513e-05
6.22729e-05
6.11452e-05
0.0244094
0.0236674
0.0226963
0.0216092
0.0202764
0.0186976
0.0167905
0.0145111
0.011865
0.00893493
0.00545851
0.00282692
0.0213417
0.0202945
0.0190204
0.0175593
0.0158103
0.013764
0.0113618
0.00861151
0.00548833
0.00266666
0.00123249
0.00119969
0.0176369
0.0162819
0.0146829
0.0128399
0.0106803
0.00820559
0.00529035
0.00238274
0.000746058
0.000379566
0.000403328
0.000512629
0.0133437
0.0116663
0.00972769
0.0074964
0.00483915
0.00214348
0.000531078
0.000197715
0.000168391
0.000265944
0.000228021
0.000248514
0.00852145
0.00648645
0.0041158
0.00179285
0.000461357
0.00018491
0.000171827
0.000220485
0.000205022
0.000203692
0.000199774
0.000196518
0.00313725
0.00130812
0.000398222
0.000296242
0.00019673
0.000214152
0.000210712
0.00020851
0.000207181
0.000204497
0.000203071
0.000201398
0.000309018
0.000790822
0.000210979
0.000218591
0.000217685
0.000216412
0.000215098
0.00021316
0.000211021
0.000209394
0.000208481
0.000207189
0.000221419
0.000226176
0.000222705
0.000222627
0.000222033
0.000221138
0.000219738
0.000217957
0.000216246
0.000215
0.000214183
0.000213039
0.000226147
0.00022564
0.000225269
0.000224931
0.00022452
0.000223979
0.000223208
0.000222193
0.000220949
0.000219589
0.000218396
0.000217487
0.000223599
0.000223491
0.000223416
0.000223404
0.000223268
0.000223008
0.000222472
0.000221683
0.000220626
0.00021945
0.000218346
0.000217524
0.00019065
0.000192131
0.000193942
0.000195498
0.000197201
0.000198643
0.000200049
0.000201314
0.000202542
0.000203773
0.000205138
0.000206208
6.12913e-05
6.04451e-05
6.05429e-05
5.98833e-05
5.9958e-05
5.94557e-05
5.95253e-05
5.92003e-05
5.92759e-05
5.91749e-05
5.9257e-05
5.93256e-05
0.00432212
0.0246898
0.028451
0.0284627
0.0284006
0.0281446
0.0278648
0.0276377
0.0273329
0.0268365
0.0260277
0.0251618
0.00415903
0.0226776
0.0264203
0.0260938
0.0259145
0.0256915
0.0255113
0.0252711
0.0248284
0.0241168
0.0232138
0.0222669
0.00405109
0.0207178
0.023801
0.0234373
0.0232811
0.0231308
0.0228693
0.0224549
0.0217844
0.0208607
0.0198725
0.0188028
0.00393054
0.0185297
0.020837
0.0207073
0.0205312
0.0202191
0.0198048
0.019097
0.0182046
0.0171814
0.0160525
0.0147846
0.00377428
0.0161842
0.017906
0.0177657
0.0174438
0.0169052
0.0161779
0.0152983
0.0142689
0.0130846
0.0117587
0.0102488
0.00355354
0.0137859
0.0150337
0.0145146
0.0139162
0.0131359
0.0122455
0.0111679
0.00999322
0.00860959
0.00702965
0.00518121
0.00328389
0.0108318
0.0118758
0.0106798
0.0101585
0.00909242
0.00806923
0.00670367
0.00528519
0.00362926
0.00210428
0.000824914
0.00292574
0.00761866
0.0083181
0.00664645
0.00614531
0.00457525
0.00353568
0.00210202
0.00117241
0.000439866
0.000243932
0.000489756
0.00238498
0.00376262
0.00414944
0.00247422
0.00215646
0.000901508
0.000637713
0.000349048
0.00023382
0.000241822
0.0002249
0.000227854
0.00177278
0.000877714
0.00101524
0.000402436
0.000365675
0.000281136
0.00022041
0.000218869
0.00022438
0.000223881
0.000224355
0.000223926
0.00115384
0.000154318
0.000186873
0.000156025
0.000168926
0.000165932
0.00017904
0.000179484
0.000182547
0.000184884
0.000186999
0.000188523
0.000400332
7.45089e-05
7.23754e-05
6.85682e-05
6.79544e-05
6.55062e-05
6.5524e-05
6.32987e-05
6.36213e-05
6.20513e-05
6.22729e-05
6.11453e-05
0.0244094
0.0236674
0.0226962
0.0216092
0.0202764
0.0186976
0.0167905
0.0145111
0.011865
0.00893492
0.00545851
0.00282692
0.0213417
0.0202945
0.0190204
0.0175593
0.0158102
0.013764
0.0113618
0.00861149
0.00548832
0.00266665
0.00123249
0.00119969
0.0176368
0.0162819
0.0146829
0.0128399
0.0106802
0.00820556
0.00529032
0.00238272
0.000746056
0.000379565
0.000403327
0.000512628
0.0133437
0.0116663
0.00972765
0.00749637
0.00483912
0.00214345
0.000531073
0.000197715
0.000168392
0.000265942
0.000228021
0.000248514
0.00852142
0.00648641
0.00411576
0.00179283
0.00046135
0.000184908
0.00017183
0.000220486
0.000205022
0.000203693
0.000199774
0.000196518
0.00313721
0.0013081
0.000398217
0.000296245
0.000196731
0.000214153
0.000210712
0.00020851
0.000207182
0.000204497
0.000203072
0.000201398
0.000309014
0.000790823
0.000210979
0.000218592
0.000217685
0.000216412
0.000215099
0.00021316
0.000211021
0.000209395
0.000208481
0.00020719
0.00022142
0.000226176
0.000222705
0.000222627
0.000222033
0.000221139
0.000219739
0.000217957
0.000216246
0.000215
0.000214183
0.000213039
0.000226148
0.000225641
0.000225269
0.000224932
0.00022452
0.000223979
0.000223208
0.000222194
0.00022095
0.00021959
0.000218396
0.000217487
0.0002236
0.000223491
0.000223416
0.000223404
0.000223268
0.000223009
0.000222473
0.000221684
0.000220627
0.00021945
0.000218347
0.000217524
0.00019065
0.000192132
0.000193943
0.000195498
0.000197201
0.000198644
0.000200049
0.000201314
0.000202542
0.000203774
0.000205139
0.000206209
6.12914e-05
6.04452e-05
6.05429e-05
5.98834e-05
5.99581e-05
5.94558e-05
5.95254e-05
5.92004e-05
5.92761e-05
5.91751e-05
5.92571e-05
5.93257e-05
0.00432212
0.0246898
0.0284509
0.0284627
0.0284006
0.0281445
0.0278648
0.0276377
0.0273329
0.0268365
0.0260277
0.0251617
0.00415903
0.0226776
0.0264202
0.0260938
0.0259145
0.0256915
0.0255113
0.0252711
0.0248284
0.0241168
0.0232138
0.0222669
0.00405109
0.0207178
0.023801
0.0234373
0.0232811
0.0231308
0.0228693
0.0224549
0.0217844
0.0208607
0.0198725
0.0188028
0.00393054
0.0185297
0.020837
0.0207073
0.0205312
0.0202191
0.0198048
0.019097
0.0182046
0.0171814
0.0160525
0.0147846
0.00377428
0.0161841
0.017906
0.0177657
0.0174438
0.0169052
0.0161779
0.0152983
0.0142689
0.0130846
0.0117587
0.0102488
0.00355354
0.0137859
0.0150337
0.0145146
0.0139162
0.0131359
0.0122455
0.0111679
0.00999322
0.00860959
0.00702965
0.0051812
0.00328389
0.0108318
0.0118758
0.0106797
0.0101585
0.00909242
0.00806923
0.00670367
0.00528519
0.00362926
0.00210428
0.000824916
0.00292575
0.00761866
0.0083181
0.00664645
0.00614531
0.00457525
0.00353569
0.00210203
0.00117241
0.000439862
0.000243936
0.000489751
0.00238498
0.00376262
0.00414943
0.00247422
0.00215646
0.000901509
0.000637714
0.000349047
0.000233821
0.000241823
0.0002249
0.000227854
0.00177278
0.000877711
0.00101524
0.000402436
0.000365675
0.000281136
0.00022041
0.000218869
0.000224381
0.000223881
0.000224355
0.000223927
0.00115384
0.000154318
0.000186873
0.000156025
0.000168925
0.000165932
0.00017904
0.000179484
0.000182547
0.000184884
0.000186998
0.000188523
0.000400335
7.45091e-05
7.23754e-05
6.85683e-05
6.79544e-05
6.55063e-05
6.55241e-05
6.32987e-05
6.36213e-05
6.20514e-05
6.22729e-05
6.11453e-05