/*--------------------------------*- C++ -*----------------------------------*\
| =========                 |                                                 |
| \\      /  F ield         | OpenFOAM: The Open Source CFD Toolbox           |
|  \\    /   O peration     | Version:  2212                                  |
|   \\  /    A nd           | Website:  www.openfoam.com                      |
|    \\/     M anipulation  |                                                 |
\*---------------------------------------------------------------------------*/
FoamFile
{
    version     2.0;
    format      ascii;
    arch        "LSB;label=32;scalar=64";
    class       volScalarField;
    location    "0.09";
    object      p;
}
// * * * * * * * * * * * * * * * * * * * * * * * * * * * * * * * * * * * * * //

dimensions      [1 -1 -2 0 0 0 0];

internalField   nonuniform List<scalar> 
3072
(
97254.6
97242.9
97234.5
97226.4
97224.7
97223.8
97225.9
97225.1
97241
97268.2
97263.4
97225.2
97344.9
97312.3
97302.4
97293.2
97295
97299.8
97318.4
97347.6
97400.8
97486.6
97527.9
97542.5
97404.1
97355.6
97345.3
97340.3
97354.3
97379.8
97421.4
97474.6
97525.5
97576.5
97612.9
97639.4
97505.1
97450.5
97442.1
97444.5
97473.9
97523
97583.6
97640.7
97691.1
97733.5
97764.2
97788.9
97612.9
97568.2
97565.8
97580.9
97624.4
97684.3
97748.3
97803.9
97851
97888
97915
97935.7
97744.1
97709.5
97716.2
97743.5
97795.4
97856.8
97915
97963
98001.6
98031.6
98054.2
98071.2
97871.4
97858.3
97874.2
97912.6
97968.2
98025.8
98075.6
98114.6
98145.1
98168.5
98186.1
98199
98005.1
98011.6
98035.8
98080.8
98133.8
98183.8
98224.3
98255.1
98278.6
98296
98308.9
98318.1
98134.2
98168.8
98196.2
98243.2
98289.1
98329.7
98361.1
98384.3
98401.3
98413.5
98422.2
98428.1
98264
98318.3
98351
98397.8
98435.6
98465.9
98487.9
98503.4
98514.2
98521.7
98526.7
98529.7
98403.4
98480.3
98505.6
98544
98571.7
98590.8
98603.5
98611.6
98616.9
98620.4
98622.4
98623
98516.4
98635.8
98651.7
98672.9
98687.6
98696.6
98701.9
98704.8
98706.7
98707.9
98708.4
98707.7
97192.6
97176.8
97180.1
97202.7
97241.3
97293.4
97355.3
97420.1
97477.5
97519.1
97545.2
97521.9
97551.7
97551
97553.1
97556.7
97566.2
97580.4
97599
97618.5
97634.3
97653.4
97665
97581.5
97655.3
97664.5
97672.8
97681.7
97693
97704.3
97714.7
97720.4
97718.3
97717.2
97705.2
97580.3
97806.6
97819.5
97829.6
97837.1
97842.1
97844.3
97843.1
97835
97816.9
97794.7
97765
97604.9
97950.4
97960.6
97967.4
97971.3
97972.4
97970
97963.2
97950
97926.2
97893
97852.9
97677.4
98083.3
98091.5
98096.5
98098.5
98097.7
98093.6
98085.1
98070.8
98047.6
98012.5
97969.3
97796.8
98208.1
98214
98217.2
98218
98216.5
98212.5
98205.5
98194.2
98176.3
98148.1
98114.2
97961.8
98324.3
98328
98329.7
98329.7
98328.3
98325.9
98322.1
98316.5
98308.2
98293.8
98280.6
98168.4
98431.8
98433.5
98433.9
98433.3
98432.3
98431.7
98432
98433.5
98436.9
98441.6
98459.2
98411.4
98531
98530.8
98529.9
98528.4
98527.5
98528.4
98532.3
98540.5
98555.3
98579.7
98637.5
98675.4
98622.4
98620
98617.4
98614.7
98613
98614.2
98620.1
98633.1
98655.9
98695.6
98796.6
98931
98705.7
98701.2
98696.4
98691.5
98688
98687.8
98693.2
98707.2
98731.8
98777.5
98893.3
99152.9
97254.6
97242.9
97234.5
97226.4
97224.7
97223.8
97225.9
97225.1
97241
97268.2
97263.4
97225.2
97344.9
97312.3
97302.4
97293.2
97295
97299.8
97318.4
97347.6
97400.8
97486.6
97527.9
97542.5
97404.1
97355.6
97345.3
97340.3
97354.3
97379.8
97421.4
97474.6
97525.5
97576.5
97612.9
97639.4
97505.1
97450.5
97442.1
97444.5
97473.9
97523
97583.6
97640.7
97691.1
97733.5
97764.2
97788.9
97612.9
97568.2
97565.8
97580.9
97624.4
97684.3
97748.3
97803.9
97851
97888
97915
97935.7
97744.1
97709.5
97716.2
97743.5
97795.4
97856.8
97915
97963
98001.6
98031.6
98054.2
98071.2
97871.4
97858.3
97874.2
97912.7
97968.2
98025.8
98075.6
98114.6
98145.1
98168.5
98186.1
98199
98005.1
98011.6
98035.8
98080.8
98133.8
98183.8
98224.3
98255.1
98278.6
98296
98308.9
98318.1
98134.2
98168.8
98196.2
98243.2
98289.1
98329.7
98361.1
98384.3
98401.3
98413.5
98422.2
98428.1
98264
98318.3
98351
98397.8
98435.6
98465.9
98487.9
98503.4
98514.2
98521.7
98526.7
98529.7
98403.4
98480.3
98505.6
98544
98571.7
98590.8
98603.5
98611.6
98616.9
98620.4
98622.4
98623
98516.4
98635.8
98651.7
98672.9
98687.6
98696.6
98701.9
98704.8
98706.7
98707.9
98708.4
98707.7
97192.6
97176.8
97180.1
97202.7
97241.3
97293.4
97355.3
97420.1
97477.5
97519.1
97545.2
97521.9
97551.7
97551
97553.1
97556.7
97566.2
97580.4
97599
97618.5
97634.3
97653.4
97665
97581.5
97655.3
97664.5
97672.8
97681.7
97693
97704.3
97714.7
97720.4
97718.3
97717.2
97705.2
97580.3
97806.6
97819.5
97829.6
97837.1
97842.1
97844.3
97843.1
97835
97816.9
97794.7
97765
97604.9
97950.4
97960.6
97967.4
97971.3
97972.4
97970
97963.2
97950
97926.2
97893
97852.9
97677.4
98083.3
98091.5
98096.5
98098.5
98097.7
98093.6
98085.1
98070.8
98047.6
98012.5
97969.3
97796.8
98208.1
98214
98217.2
98218
98216.5
98212.5
98205.5
98194.2
98176.3
98148.1
98114.2
97961.8
98324.3
98328
98329.7
98329.7
98328.3
98325.9
98322.1
98316.5
98308.2
98293.8
98280.6
98168.4
98431.8
98433.5
98433.9
98433.3
98432.3
98431.7
98432
98433.5
98436.9
98441.6
98459.2
98411.4
98531
98530.8
98529.9
98528.4
98527.5
98528.4
98532.3
98540.5
98555.3
98579.7
98637.5
98675.4
98622.4
98620
98617.4
98614.7
98613
98614.2
98620.1
98633.1
98655.9
98695.6
98796.6
98931
98705.7
98701.2
98696.4
98691.5
98688
98687.8
98693.2
98707.2
98731.8
98777.5
98893.3
99152.9
97254.6
97242.9
97234.5
97226.4
97224.7
97223.8
97225.9
97225.1
97241
97268.2
97263.4
97225.2
97344.9
97312.3
97302.4
97293.2
97295
97299.8
97318.4
97347.6
97400.8
97486.6
97527.9
97542.5
97404.1
97355.6
97345.3
97340.3
97354.3
97379.8
97421.4
97474.6
97525.5
97576.5
97612.9
97639.4
97505.1
97450.5
97442.2
97444.5
97473.9
97523
97583.6
97640.7
97691.1
97733.5
97764.2
97788.9
97612.9
97568.2
97565.8
97580.9
97624.4
97684.3
97748.3
97803.9
97851
97888
97915
97935.7
97744.1
97709.6
97716.2
97743.5
97795.4
97856.8
97915
97963
98001.6
98031.6
98054.2
98071.2
97871.4
97858.3
97874.2
97912.7
97968.2
98025.8
98075.6
98114.6
98145.1
98168.5
98186.1
98199
98005.1
98011.7
98035.8
98080.8
98133.8
98183.8
98224.3
98255.1
98278.6
98296
98308.9
98318.1
98134.2
98168.8
98196.2
98243.2
98289.1
98329.7
98361.1
98384.3
98401.3
98413.5
98422.2
98428.1
98264
98318.3
98351
98397.8
98435.6
98465.9
98487.9
98503.4
98514.2
98521.7
98526.7
98529.7
98403.4
98480.3
98505.6
98544
98571.7
98590.8
98603.5
98611.6
98616.9
98620.4
98622.5
98623
98516.4
98635.8
98651.7
98672.9
98687.6
98696.6
98701.9
98704.8
98706.7
98707.9
98708.4
98707.7
97192.6
97176.8
97180.1
97202.7
97241.3
97293.4
97355.3
97420.1
97477.5
97519.1
97545.2
97521.9
97551.7
97551
97553.1
97556.7
97566.2
97580.4
97599
97618.5
97634.3
97653.4
97665
97581.5
97655.3
97664.5
97672.8
97681.7
97693
97704.3
97714.7
97720.4
97718.3
97717.2
97705.2
97580.3
97806.6
97819.5
97829.6
97837.1
97842.1
97844.3
97843.1
97835
97816.9
97794.7
97765
97604.9
97950.4
97960.6
97967.4
97971.3
97972.4
97970
97963.2
97950.1
97926.2
97893
97852.9
97677.4
98083.3
98091.5
98096.5
98098.5
98097.7
98093.6
98085.1
98070.8
98047.6
98012.5
97969.3
97796.8
98208.1
98214
98217.2
98218
98216.5
98212.5
98205.5
98194.2
98176.3
98148.1
98114.2
97961.8
98324.3
98328
98329.7
98329.7
98328.3
98325.9
98322.1
98316.5
98308.2
98293.8
98280.6
98168.4
98431.8
98433.5
98433.9
98433.3
98432.3
98431.7
98432
98433.5
98436.9
98441.6
98459.2
98411.4
98531
98530.8
98529.9
98528.4
98527.5
98528.4
98532.3
98540.5
98555.3
98579.7
98637.5
98675.4
98622.4
98620.1
98617.4
98614.7
98613
98614.2
98620.1
98633.1
98655.9
98695.6
98796.6
98931
98705.7
98701.2
98696.4
98691.5
98688
98687.8
98693.2
98707.2
98731.8
98777.5
98893.3
99152.9
97254.6
97242.9
97234.5
97226.4
97224.7
97223.8
97225.9
97225.1
97241
97268.2
97263.4
97225.2
97344.9
97312.3
97302.4
97293.2
97295
97299.8
97318.4
97347.6
97400.8
97486.6
97527.9
97542.5
97404.1
97355.6
97345.3
97340.3
97354.3
97379.8
97421.4
97474.6
97525.5
97576.5
97612.9
97639.4
97505.1
97450.5
97442.2
97444.5
97473.9
97523
97583.6
97640.7
97691.1
97733.5
97764.2
97788.9
97612.9
97568.2
97565.8
97580.9
97624.4
97684.3
97748.3
97803.9
97851
97888
97915
97935.7
97744.1
97709.6
97716.2
97743.5
97795.4
97856.8
97915
97963
98001.6
98031.6
98054.2
98071.2
97871.4
97858.3
97874.2
97912.7
97968.2
98025.8
98075.6
98114.6
98145.1
98168.5
98186.1
98199
98005.1
98011.6
98035.8
98080.8
98133.8
98183.8
98224.3
98255.1
98278.6
98296
98308.9
98318.1
98134.2
98168.8
98196.2
98243.2
98289.1
98329.7
98361.1
98384.3
98401.3
98413.5
98422.2
98428.1
98264
98318.3
98351
98397.8
98435.6
98465.9
98487.9
98503.4
98514.2
98521.7
98526.7
98529.7
98403.4
98480.3
98505.6
98544
98571.7
98590.8
98603.5
98611.6
98616.9
98620.4
98622.5
98623
98516.4
98635.8
98651.7
98672.9
98687.6
98696.6
98701.9
98704.8
98706.7
98707.9
98708.4
98707.7
97192.6
97176.8
97180.1
97202.7
97241.3
97293.4
97355.3
97420.1
97477.5
97519.1
97545.2
97521.9
97551.7
97551
97553.1
97556.7
97566.2
97580.4
97599
97618.5
97634.3
97653.4
97665
97581.5
97655.3
97664.5
97672.8
97681.7
97693
97704.3
97714.7
97720.4
97718.3
97717.2
97705.2
97580.3
97806.6
97819.5
97829.6
97837.1
97842.1
97844.3
97843.1
97835
97816.9
97794.7
97765
97604.9
97950.4
97960.6
97967.4
97971.3
97972.4
97970
97963.2
97950
97926.2
97893
97852.9
97677.4
98083.3
98091.5
98096.5
98098.5
98097.7
98093.6
98085.1
98070.8
98047.6
98012.5
97969.3
97796.8
98208.1
98214
98217.2
98218
98216.5
98212.5
98205.5
98194.2
98176.3
98148.1
98114.2
97961.8
98324.3
98328
98329.7
98329.7
98328.3
98325.9
98322.1
98316.5
98308.2
98293.8
98280.6
98168.4
98431.8
98433.5
98433.9
98433.3
98432.3
98431.7
98432
98433.5
98436.9
98441.6
98459.2
98411.4
98531
98530.8
98529.9
98528.4
98527.5
98528.4
98532.3
98540.5
98555.3
98579.7
98637.5
98675.4
98622.4
98620
98617.4
98614.7
98613
98614.2
98620.1
98633.1
98655.9
98695.6
98796.6
98931
98705.7
98701.2
98696.4
98691.5
98688
98687.8
98693.2
98707.2
98731.8
98777.5
98893.3
99152.9
98776.8
98779.5
98773
98772
98774.2
98776.8
98778.5
98779.8
98781.3
98782.9
98783.8
98783.4
98816.7
98799.6
98806.4
98814
98821.4
98827.6
98832.4
98836.9
98841.4
98846
98849.3
98851
98833.6
98828.3
98835.9
98844
98852.6
98861.7
98870.9
98880.4
98890.1
98900
98907.9
98914.4
98847
98849.9
98855.9
98863.4
98872.9
98884.8
98898.7
98914.5
98931.9
98949.9
98966.8
98982.5
98781.2
98774.2
98766.8
98758.4
98751.7
98748.2
98750.2
98760.9
98779.9
98812.2
98850.8
98950.7
98849.4
98839.2
98828.7
98815.7
98804.1
98795
98791.1
98795.7
98807.6
98830.9
98844.7
98886.4
98913.1
98897
98883
98863.9
98845.5
98828.2
98815.7
98811.7
98815.1
98831.4
98838.9
98862.2
98981.6
98953.1
98934.2
98906.1
98879.2
98851.3
98827.3
98810.3
98802.9
98811.9
98820
98845.8
98776.8
98779.5
98773
98772
98774.2
98776.8
98778.5
98779.8
98781.3
98782.9
98783.8
98783.4
98816.7
98799.6
98806.4
98814
98821.4
98827.6
98832.4
98836.9
98841.4
98846
98849.3
98851
98833.6
98828.3
98835.9
98844
98852.6
98861.7
98870.9
98880.4
98890.1
98900
98907.9
98914.4
98847
98849.9
98855.9
98863.4
98872.9
98884.8
98898.7
98914.5
98931.9
98949.9
98966.8
98982.5
98781.2
98774.2
98766.8
98758.4
98751.7
98748.2
98750.2
98760.9
98779.9
98812.2
98850.8
98950.7
98849.4
98839.2
98828.7
98815.7
98804.1
98795
98791.1
98795.7
98807.6
98830.9
98844.7
98886.4
98913.1
98897
98883
98863.9
98845.5
98828.2
98815.7
98811.7
98815.1
98831.4
98838.9
98862.2
98981.6
98953.1
98934.2
98906.1
98879.2
98851.3
98827.3
98810.3
98802.9
98811.9
98820
98845.8
98776.8
98779.5
98773
98772
98774.2
98776.8
98778.5
98779.8
98781.3
98782.9
98783.8
98783.4
98816.7
98799.6
98806.4
98814
98821.4
98827.6
98832.4
98836.9
98841.4
98846
98849.3
98851
98833.6
98828.3
98835.9
98844
98852.6
98861.7
98870.9
98880.4
98890.1
98900
98907.9
98914.4
98847
98849.9
98855.9
98863.4
98872.9
98884.8
98898.7
98914.5
98931.9
98949.9
98966.8
98982.5
98781.2
98774.2
98766.8
98758.4
98751.7
98748.2
98750.2
98760.9
98779.9
98812.2
98850.8
98950.7
98849.4
98839.2
98828.7
98815.7
98804.1
98795
98791.1
98795.7
98807.6
98830.9
98844.7
98886.4
98913.1
98897
98883
98863.9
98845.5
98828.2
98815.7
98811.7
98815.1
98831.4
98838.9
98862.2
98981.6
98953.1
98934.2
98906.1
98879.2
98851.3
98827.3
98810.3
98802.9
98811.9
98820
98845.8
98776.8
98779.5
98773
98772
98774.2
98776.8
98778.5
98779.8
98781.3
98782.9
98783.8
98783.4
98816.7
98799.6
98806.4
98814
98821.4
98827.6
98832.4
98836.9
98841.4
98846
98849.3
98851
98833.6
98828.3
98835.9
98844
98852.6
98861.7
98870.9
98880.4
98890.1
98900
98907.9
98914.4
98847
98849.9
98855.9
98863.4
98872.9
98884.8
98898.7
98914.5
98931.9
98949.9
98966.8
98982.5
98781.2
98774.2
98766.8
98758.4
98751.7
98748.2
98750.2
98760.9
98779.9
98812.2
98850.8
98950.7
98849.4
98839.2
98828.7
98815.7
98804.1
98795
98791.1
98795.7
98807.6
98830.9
98844.7
98886.4
98913.1
98897
98883
98863.9
98845.5
98828.2
98815.7
98811.7
98815.1
98831.4
98838.9
98862.2
98981.6
98953.1
98934.2
98906.1
98879.2
98851.3
98827.3
98810.3
98802.9
98811.9
98820
98845.8
98864.1
98872.5
98878.3
98884.8
98893
98903.6
98916.3
98930.9
98947.1
98964.3
98981.4
98999.6
98887.8
98894.9
98900.5
98906.5
98913.2
98920.7
98928.8
98937.4
98946
98955.4
98963.8
98977.9
98907.3
98912.6
98917.1
98921.9
98926.7
98931.8
98936.6
98941.3
98945
98950.3
98954.3
98959.7
98921.8
98925.5
98928.6
98931.8
98934.7
98937.6
98939.9
98942
98942.7
98945.6
98942.2
98916.8
99012.8
98986.3
98967.5
98937.2
98910
98880.1
98853.8
98832.7
98820.5
98822.4
98827.1
98850
99012.7
98984.4
98974.6
98950.1
98930.6
98908.3
98889.5
98874.4
98865.5
98865.3
98867.6
98880
99033.6
98984.4
98983.3
98961.5
98946.8
98928.9
98914.5
98902.6
98895.6
98894.5
98895.7
98902.7
99078.1
98982.7
98990.2
98971.1
98959.2
98944.4
98932.8
98923
98917
98915.1
98915
98918.8
98864.1
98872.5
98878.3
98884.8
98893
98903.6
98916.3
98930.9
98947.1
98964.3
98981.4
98999.6
98887.8
98894.9
98900.5
98906.5
98913.2
98920.7
98928.8
98937.4
98946
98955.4
98963.8
98977.9
98907.3
98912.6
98917.1
98921.9
98926.7
98931.8
98936.6
98941.3
98945
98950.3
98954.3
98959.7
98921.8
98925.5
98928.6
98931.8
98934.7
98937.6
98939.9
98942
98942.7
98945.6
98942.2
98916.8
99012.9
98986.3
98967.5
98937.2
98910
98880.1
98853.8
98832.7
98820.5
98822.4
98827.1
98850
99012.7
98984.4
98974.6
98950.1
98930.6
98908.3
98889.5
98874.4
98865.5
98865.3
98867.6
98880
99033.6
98984.4
98983.3
98961.5
98946.8
98928.9
98914.5
98902.6
98895.6
98894.5
98895.7
98902.7
99078.1
98982.7
98990.2
98971.1
98959.2
98944.4
98932.8
98923
98917
98915.1
98915
98918.8
98864.1
98872.5
98878.3
98884.8
98893
98903.6
98916.3
98930.9
98947.1
98964.3
98981.4
98999.6
98887.8
98894.9
98900.5
98906.5
98913.2
98920.7
98928.8
98937.4
98946
98955.4
98963.8
98977.9
98907.3
98912.6
98917.1
98921.9
98926.7
98931.8
98936.6
98941.3
98945
98950.3
98954.3
98959.7
98921.8
98925.5
98928.6
98931.8
98934.7
98937.6
98939.9
98942
98942.7
98945.6
98942.2
98916.8
99012.9
98986.3
98967.5
98937.2
98910
98880.1
98853.8
98832.7
98820.5
98822.4
98827.1
98850
99012.7
98984.4
98974.6
98950.1
98930.6
98908.3
98889.5
98874.4
98865.5
98865.3
98867.6
98880
99033.6
98984.4
98983.3
98961.5
98946.8
98928.9
98914.5
98902.6
98895.6
98894.5
98895.7
98902.7
99078.1
98982.7
98990.2
98971.1
98959.2
98944.4
98932.8
98923
98917
98915.1
98915
98918.8
98864.1
98872.5
98878.3
98884.8
98893
98903.6
98916.3
98930.9
98947.1
98964.3
98981.4
98999.6
98887.8
98894.9
98900.5
98906.5
98913.2
98920.7
98928.8
98937.4
98946
98955.4
98963.8
98977.9
98907.3
98912.6
98917.1
98921.9
98926.7
98931.8
98936.6
98941.3
98945
98950.3
98954.3
98959.7
98921.8
98925.5
98928.6
98931.8
98934.7
98937.6
98939.9
98942
98942.7
98945.6
98942.2
98916.8
99012.8
98986.3
98967.5
98937.2
98910
98880.1
98853.8
98832.7
98820.5
98822.4
98827.1
98850
99012.7
98984.4
98974.6
98950.1
98930.6
98908.3
98889.5
98874.4
98865.5
98865.3
98867.6
98880
99033.6
98984.4
98983.3
98961.5
98946.8
98928.9
98914.5
98902.6
98895.6
98894.5
98895.7
98902.7
99078.1
98982.7
98990.2
98971.1
98959.2
98944.4
98932.8
98923
98917
98915.1
98915
98918.8
98931.8
98934
98935.5
98937.2
98938.3
98939.3
98939.3
98938.7
98935.2
98930.2
98918.9
98865.8
98938
98938.7
98939
98939.3
98939
98938.6
98936.8
98934
98929.1
98926.1
98921.3
98896.7
98941.2
98940.8
98940.1
98939.7
98938.3
98936.6
98933.7
98932.3
98929.8
98925.2
98919.8
98901.2
98942.7
98941.6
98940.2
98938.6
98936.6
98935.8
98934.7
98932.8
98929.8
98925.5
98921.2
98909
98943
98941.3
98939.4
98938.8
98937.8
98936.5
98934.4
98932
98929
98925.1
98921.1
98912.7
98942.9
98941.7
98940.5
98939.2
98937.6
98936.1
98934.3
98932.1
98929.2
98925.6
98922.2
98916.1
98944
98942.4
98940.6
98939.2
98937.6
98936
98933.8
98931.6
98928.8
98925.6
98922.5
98918.2
98944.2
98942.5
98940.8
98939.2
98937.6
98935.9
98933.9
98931.7
98929
98926
98923.2
98919.8
98944.6
98942.8
98940.8
98939.3
98937.5
98935.8
98933.6
98931.5
98928.8
98926.1
98923.5
98921
98944.9
98942.8
98941.1
98939.3
98937.6
98935.7
98933.7
98931.4
98928.9
98926.3
98923.9
98921.7
98944.9
98943
98941
98939.3
98937.5
98935.7
98933.6
98931.4
98928.8
98926.5
98924
98922.2
98945.2
98942.9
98941.2
98939.3
98937.6
98935.6
98933.7
98931.3
98928.9
98926.4
98924.1
98922.3
99175.2
98977.5
98993.7
98977.7
98968.1
98955.5
98946
98937.8
98932.4
98929.8
98928.6
98930.3
99149.5
98972.9
98994.8
98981.4
98973.9
98963.2
98955.2
98948
98942.8
98939.6
98937.6
98937.7
99131
98972.3
98995.2
98982.9
98977.4
98968.2
98961.1
98954.5
98949.3
98945.6
98943
98942.1
99095.9
98969.3
98994.2
98983.1
98979.3
98971.3
98964.5
98958.3
98953
98949
98946
98944.2
99063
98967.2
98993.3
98983
98979.7
98973
98966.2
98960.2
98954.9
98950.8
98947.5
98945.3
99034.1
98967.8
98992.4
98983.3
98979.4
98973.6
98966.9
98961.1
98955.8
98951.6
98947.9
98945.2
99007.4
98971.6
98991.5
98984.2
98979.4
98973.6
98967
98961.3
98956
98951.9
98948.3
98946.1
98985.6
98982.4
98991.3
98985.6
98979.2
98973.7
98967.1
98961.7
98956.6
98952.7
98949.2
98946.6
98965.2
98993.1
98990.9
98987.4
98979.8
98974.4
98967.7
98962.6
98957.2
98953.3
98949.6
98947.1
98961.1
99008.2
98993.3
98989.7
98981.5
98974.9
98968.5
98962.9
98957.9
98953.7
98950.2
98947.2
98916.1
99017.2
98994
98991.5
98982.6
98975.7
98969
98963.5
98958.1
98954.1
98950.3
98947.6
98989.8
99056.5
99000.1
98994
98984.3
98975.9
98969.6
98963.4
98958.6
98954.1
98950.7
98947.5
98931.8
98934
98935.5
98937.2
98938.3
98939.3
98939.3
98938.7
98935.2
98930.2
98918.9
98865.8
98938
98938.7
98939
98939.3
98939
98938.6
98936.8
98934
98929.1
98926.1
98921.3
98896.7
98941.2
98940.8
98940.1
98939.7
98938.3
98936.6
98933.7
98932.3
98929.8
98925.2
98919.8
98901.2
98942.7
98941.6
98940.2
98938.6
98936.6
98935.8
98934.7
98932.8
98929.8
98925.5
98921.2
98909
98943
98941.3
98939.4
98938.8
98937.8
98936.5
98934.4
98932
98929
98925.1
98921.1
98912.7
98942.9
98941.7
98940.5
98939.2
98937.6
98936.1
98934.3
98932.1
98929.2
98925.6
98922.2
98916.1
98944
98942.4
98940.6
98939.2
98937.6
98936
98933.8
98931.6
98928.8
98925.6
98922.5
98918.2
98944.2
98942.5
98940.8
98939.2
98937.6
98935.9
98933.9
98931.7
98929
98926
98923.2
98919.8
98944.6
98942.8
98940.8
98939.3
98937.5
98935.8
98933.6
98931.5
98928.8
98926.1
98923.5
98921
98944.9
98942.8
98941.1
98939.3
98937.6
98935.7
98933.7
98931.4
98928.9
98926.3
98923.9
98921.7
98944.9
98943
98941
98939.3
98937.5
98935.7
98933.6
98931.4
98928.8
98926.5
98924
98922.2
98945.2
98942.9
98941.2
98939.3
98937.6
98935.6
98933.7
98931.3
98928.9
98926.4
98924.1
98922.3
99175.2
98977.5
98993.7
98977.8
98968.1
98955.5
98946
98937.8
98932.4
98929.8
98928.6
98930.3
99149.5
98972.9
98994.8
98981.4
98973.9
98963.2
98955.2
98948
98942.8
98939.6
98937.6
98937.7
99131
98972.3
98995.2
98982.9
98977.4
98968.2
98961.1
98954.5
98949.3
98945.6
98943
98942.1
99095.9
98969.3
98994.2
98983.1
98979.3
98971.3
98964.5
98958.3
98953
98949
98946
98944.2
99063
98967.2
98993.3
98983
98979.7
98973
98966.2
98960.2
98954.9
98950.8
98947.5
98945.3
99034.1
98967.8
98992.4
98983.3
98979.4
98973.6
98966.9
98961.1
98955.8
98951.6
98947.9
98945.2
99007.4
98971.6
98991.5
98984.2
98979.4
98973.6
98967
98961.3
98956
98951.9
98948.3
98946.1
98985.6
98982.4
98991.3
98985.6
98979.2
98973.7
98967.1
98961.7
98956.6
98952.7
98949.2
98946.6
98965.2
98993.1
98990.9
98987.4
98979.8
98974.4
98967.7
98962.6
98957.2
98953.3
98949.6
98947.1
98961.1
99008.2
98993.3
98989.7
98981.5
98974.9
98968.5
98962.9
98957.9
98953.7
98950.2
98947.2
98916.1
99017.2
98994
98991.5
98982.6
98975.7
98969
98963.5
98958.1
98954.1
98950.3
98947.6
98989.8
99056.5
99000.1
98994
98984.3
98975.9
98969.6
98963.4
98958.6
98954.1
98950.7
98947.5
98931.8
98934
98935.5
98937.2
98938.3
98939.3
98939.3
98938.7
98935.2
98930.2
98918.9
98865.8
98938
98938.7
98939
98939.3
98939
98938.6
98936.8
98934
98929.1
98926.1
98921.4
98896.7
98941.2
98940.9
98940.1
98939.7
98938.3
98936.6
98933.7
98932.3
98929.8
98925.2
98919.8
98901.2
98942.7
98941.6
98940.2
98938.6
98936.6
98935.8
98934.7
98932.8
98929.8
98925.5
98921.2
98909
98943
98941.3
98939.4
98938.8
98937.8
98936.5
98934.4
98932
98929
98925.1
98921.1
98912.7
98942.9
98941.7
98940.5
98939.2
98937.6
98936.1
98934.3
98932.1
98929.2
98925.6
98922.2
98916.1
98944
98942.4
98940.6
98939.2
98937.6
98936
98933.8
98931.6
98928.8
98925.6
98922.5
98918.2
98944.2
98942.5
98940.8
98939.2
98937.6
98935.9
98933.9
98931.7
98929
98926
98923.2
98919.8
98944.6
98942.8
98940.8
98939.3
98937.5
98935.8
98933.6
98931.5
98928.8
98926.1
98923.5
98921
98944.9
98942.8
98941.1
98939.3
98937.6
98935.7
98933.7
98931.4
98928.9
98926.3
98923.9
98921.7
98944.9
98943
98941
98939.3
98937.5
98935.7
98933.6
98931.4
98928.8
98926.5
98924
98922.2
98945.2
98942.9
98941.2
98939.3
98937.6
98935.6
98933.7
98931.3
98928.9
98926.4
98924.1
98922.3
99175.2
98977.5
98993.7
98977.8
98968.1
98955.5
98946
98937.8
98932.4
98929.8
98928.6
98930.3
99149.5
98972.9
98994.8
98981.4
98973.9
98963.2
98955.2
98948
98942.8
98939.6
98937.6
98937.7
99131
98972.3
98995.2
98982.9
98977.4
98968.2
98961.1
98954.5
98949.3
98945.6
98943
98942.1
99095.9
98969.3
98994.2
98983.1
98979.3
98971.3
98964.5
98958.3
98953
98949
98946
98944.2
99063
98967.2
98993.3
98983
98979.7
98973
98966.2
98960.2
98954.9
98950.8
98947.5
98945.3
99034.1
98967.8
98992.4
98983.3
98979.4
98973.6
98966.9
98961.1
98955.8
98951.6
98947.9
98945.2
99007.4
98971.6
98991.5
98984.2
98979.4
98973.6
98967
98961.3
98956
98951.9
98948.3
98946.1
98985.6
98982.4
98991.3
98985.6
98979.2
98973.7
98967.1
98961.7
98956.6
98952.7
98949.2
98946.6
98965.2
98993.1
98990.9
98987.4
98979.8
98974.4
98967.7
98962.6
98957.2
98953.3
98949.6
98947.1
98961.1
99008.2
98993.3
98989.7
98981.5
98974.9
98968.5
98962.9
98957.9
98953.7
98950.2
98947.2
98916.1
99017.2
98994
98991.5
98982.6
98975.7
98969
98963.5
98958.1
98954.1
98950.3
98947.6
98989.8
99056.5
99000.1
98994
98984.3
98975.9
98969.6
98963.4
98958.6
98954.1
98950.7
98947.5
98931.8
98934
98935.5
98937.2
98938.3
98939.3
98939.3
98938.7
98935.2
98930.2
98918.9
98865.8
98938
98938.7
98939
98939.3
98939
98938.6
98936.8
98934
98929.1
98926.1
98921.3
98896.7
98941.2
98940.8
98940.1
98939.7
98938.3
98936.6
98933.7
98932.3
98929.8
98925.2
98919.8
98901.2
98942.7
98941.6
98940.2
98938.6
98936.6
98935.8
98934.7
98932.8
98929.8
98925.5
98921.2
98909
98943
98941.3
98939.4
98938.8
98937.8
98936.5
98934.4
98932
98929
98925.1
98921.1
98912.7
98942.9
98941.7
98940.5
98939.2
98937.6
98936.1
98934.3
98932.1
98929.2
98925.6
98922.2
98916.1
98944
98942.4
98940.6
98939.2
98937.6
98936
98933.8
98931.6
98928.8
98925.6
98922.5
98918.2
98944.2
98942.5
98940.8
98939.2
98937.6
98935.9
98933.9
98931.7
98929
98926
98923.2
98919.8
98944.6
98942.8
98940.8
98939.3
98937.5
98935.8
98933.6
98931.5
98928.8
98926.1
98923.5
98921
98944.9
98942.8
98941.1
98939.3
98937.6
98935.7
98933.7
98931.4
98928.9
98926.3
98923.9
98921.7
98944.9
98943
98941
98939.3
98937.5
98935.7
98933.6
98931.4
98928.8
98926.5
98924
98922.2
98945.2
98942.9
98941.2
98939.3
98937.6
98935.6
98933.7
98931.3
98928.9
98926.4
98924.1
98922.3
99175.2
98977.5
98993.7
98977.8
98968.1
98955.5
98946
98937.8
98932.4
98929.8
98928.6
98930.3
99149.5
98972.9
98994.8
98981.4
98973.9
98963.2
98955.2
98948
98942.8
98939.6
98937.6
98937.7
99131
98972.3
98995.2
98982.9
98977.4
98968.2
98961.1
98954.5
98949.3
98945.6
98943
98942.1
99095.9
98969.3
98994.2
98983.1
98979.3
98971.3
98964.5
98958.3
98953
98949
98946
98944.2
99063
98967.2
98993.3
98983
98979.7
98973
98966.2
98960.2
98954.9
98950.8
98947.5
98945.3
99034.1
98967.8
98992.4
98983.3
98979.4
98973.6
98966.9
98961.1
98955.8
98951.6
98947.9
98945.2
99007.4
98971.6
98991.5
98984.2
98979.4
98973.6
98967
98961.3
98956
98951.9
98948.3
98946.1
98985.6
98982.4
98991.3
98985.6
98979.2
98973.7
98967.1
98961.7
98956.6
98952.7
98949.2
98946.6
98965.2
98993.1
98990.9
98987.4
98979.8
98974.4
98967.7
98962.6
98957.2
98953.3
98949.6
98947.1
98961.1
99008.2
98993.3
98989.7
98981.5
98974.9
98968.5
98962.9
98957.9
98953.7
98950.2
98947.2
98916.1
99017.2
98994
98991.5
98982.6
98975.7
98969
98963.5
98958.1
98954.1
98950.3
98947.6
98989.8
99056.5
99000.1
98994
98984.3
98975.9
98969.6
98963.4
98958.6
98954.1
98950.7
98947.5
)
;

boundaryField
{
    rotor
    {
        type            zeroGradient;
    }
    stator
    {
        type            zeroGradient;
    }
    front
    {
        type            empty;
    }
    back
    {
        type            empty;
    }
}


// ************************************************************************* //
