/*--------------------------------*- C++ -*----------------------------------*\
| =========                 |                                                 |
| \\      /  F ield         | OpenFOAM: The Open Source CFD Toolbox           |
|  \\    /   O peration     | Version:  2212                                  |
|   \\  /    A nd           | Website:  www.openfoam.com                      |
|    \\/     M anipulation  |                                                 |
\*---------------------------------------------------------------------------*/
FoamFile
{
    version     2.0;
    format      ascii;
    arch        "LSB;label=32;scalar=64";
    class       surfaceScalarField;
    location    "0.09";
    object      phi;
}
// * * * * * * * * * * * * * * * * * * * * * * * * * * * * * * * * * * * * * //

dimensions      [1 0 -1 0 0 0 0];

oriented        oriented;

internalField   nonuniform List<scalar> 
5952
(
6.54809e-05
-6.54808e-05
0.000123397
-5.79162e-05
0.000154576
-3.11785e-05
0.000168008
-1.34321e-05
0.000166556
1.4522e-06
0.000131324
3.52319e-05
5.62326e-05
7.50915e-05
-8.11923e-05
0.000137425
-0.000293862
0.00021267
-0.000468038
0.000174176
-0.000597389
0.000129351
9.81098e-05
-0.000695499
5.21154e-05
-0.000117596
7.88156e-05
-8.46164e-05
7.24298e-05
-2.47925e-05
3.10444e-05
2.79533e-05
-5.39386e-05
8.64353e-05
-0.000187422
0.000168715
-0.000349795
0.000237465
-0.000474117
0.000261746
-0.000517401
0.000255954
-0.000555518
0.000212293
-0.000594585
0.000168418
0.000131127
-0.000627602
2.15154e-05
-0.000139111
1.45768e-05
-7.76777e-05
-2.71227e-05
1.69071e-05
-0.000112516
0.000113347
-0.000237334
0.000211253
-0.000349569
0.000280951
-0.000416427
0.000304322
-0.000452109
0.000297429
-0.00046449
0.000268336
-0.000476678
0.000224481
-0.000490973
0.000182712
0.000142307
-0.000502153
-3.49423e-05
-0.000104169
-8.00853e-05
-3.25346e-05
-0.000145097
8.19184e-05
-0.000225434
0.000193685
-0.000297663
0.000283483
-0.000340778
0.000324065
-0.000361451
0.000324995
-0.000369165
0.000305143
-0.000371048
0.000270219
-0.00037371
0.000227142
-0.000375946
0.000184948
0.000143343
-0.000376981
-5.9488e-05
-4.46808e-05
-0.000122115
3.00925e-05
-0.000183421
0.000143225
-0.000235975
0.000246238
-0.000267016
0.000314525
-0.000276433
0.000333482
-0.000275465
0.000324028
-0.000267614
0.000297292
-0.00025892
0.000261525
-0.000253084
0.000221307
-0.000248975
0.00018084
0.000140472
-0.000246105
-6.59896e-05
2.13089e-05
-0.00012541
8.95131e-05
-0.000172083
0.000189898
-0.000197438
0.000271593
-0.000200869
0.000317956
-0.000191643
0.000324256
-0.000176005
0.00030839
-0.000159488
0.000280775
-0.000144972
0.000247009
-0.000133749
0.000210084
-0.000125263
0.000172353
0.000134238
-0.000119029
-6.58969e-05
8.72059e-05
-0.00011687
0.000140486
-0.000144427
0.000217455
-0.000145395
0.000272561
-0.000127656
0.000300217
-0.000102576
0.000299176
-7.66196e-05
0.000282433
-5.28527e-05
0.000257008
-3.26997e-05
0.000226856
-1.65859e-05
0.000193971
-4.0123e-06
0.00015978
0.000124677
5.54954e-06
-6.74886e-05
0.000154695
-0.000104194
0.000177192
-0.000110452
0.000223713
-8.97799e-05
0.000251889
-5.46204e-05
0.000265058
-1.6636e-05
0.000261192
1.90469e-05
0.00024675
5.03267e-05
0.000225729
7.66228e-05
0.000200561
9.80416e-05
0.000172552
0.000115172
0.000142649
0.000111243
0.000128606
-5.70018e-05
0.000211697
-8.26856e-05
0.000202876
-6.76535e-05
0.000208681
-2.91478e-05
0.000213384
2.00388e-05
0.000215872
6.9272e-05
0.000211959
0.000114135
0.000201888
0.000153035
0.000186829
0.000185841
0.000167755
0.000212985
0.000145408
0.000235162
0.000120473
9.3384e-05
0.000253021
-6.04847e-05
0.000272182
-4.97273e-05
0.000192118
-4.77251e-06
0.000163727
5.19756e-05
0.000156636
0.000112803
0.000155044
0.000170452
0.00015431
0.000221962
0.000150378
0.0002665
0.00014229
0.000304325
0.000129931
0.000336082
0.00011365
0.000362532
9.40228e-05
7.15872e-05
0.000384329
7.62311e-06
0.000264559
5.6659e-05
0.000143083
0.000124902
9.54835e-05
0.000192687
8.88514e-05
0.000256127
9.16038e-05
0.000313292
9.71461e-05
0.00036372
9.99501e-05
0.000407603
9.84068e-05
0.000445487
9.20474e-05
0.000477997
8.11395e-05
0.000505767
6.6253e-05
4.8071e-05
0.000529284
0.000219177
4.5382e-05
0.00031427
4.79894e-05
0.000381186
2.85677e-05
0.00043391
3.61281e-05
0.000478168
4.73453e-05
0.000518096
5.72181e-05
0.000554799
6.32471e-05
0.000588432
6.47742e-05
0.000619016
6.14639e-05
0.000646565
5.3591e-05
0.000671195
4.16223e-05
0.000692957
2.63096e-05
-0.000763819
6.83203e-05
-0.000804516
4.06976e-05
-0.000821137
1.66207e-05
-0.000814383
-6.75451e-06
-0.000786294
-2.8088e-05
-0.000735775
-5.05192e-05
-0.000661252
-7.45227e-05
-0.000560908
-0.000100344
-0.000432585
-0.000128323
-0.000276554
-0.000156031
-0.000111969
-0.000164585
-0.000111969
-0.000650569
9.1287e-05
-0.000665086
5.5215e-05
-0.000669759
2.12937e-05
-0.000665343
-1.11702e-05
-0.000649664
-4.37673e-05
-0.000621084
-7.90992e-05
-0.000577706
-0.000117901
-0.000517121
-0.000160929
-0.000436352
-0.000209092
-0.000332637
-0.000259745
-0.000197519
-0.000299703
-0.000309488
-0.000511558
0.000100692
-0.000517442
6.10988e-05
-0.000518761
2.2613e-05
-0.000513785
-1.61468e-05
-0.000500648
-5.69037e-05
-0.00047848
-0.000101267
-0.000445822
-0.000150559
-0.000401285
-0.000205466
-0.000343079
-0.000267298
-0.000266152
-0.000336672
-0.000159845
-0.00040601
-0.000469333
-0.000378196
0.000101907
-0.000378461
6.13638e-05
-0.000376381
2.05339e-05
-0.000370786
-2.17421e-05
-0.000360797
-6.68922e-05
-0.000345635
-0.000116429
-0.000324067
-0.000172127
-0.000295122
-0.000234411
-0.000256503
-0.000305917
-0.000203695
-0.00038948
-0.000124712
-0.000484992
-0.000594045
-0.000244273
0.000100076
-0.000242485
5.95759e-05
-0.000239981
1.80298e-05
-0.000236091
-2.56321e-05
-0.000230281
-7.27021e-05
-0.000221966
-0.000124744
-0.000210586
-0.000183507
-0.000194887
-0.000250109
-0.000172798
-0.000328006
-0.000141533
-0.000420745
-8.95935e-05
-0.000536932
-0.000683639
-0.000114608
9.56552e-05
-0.000111346
5.63143e-05
-0.000108765
1.54489e-05
-0.000106503
-2.7894e-05
-0.000104306
-7.48995e-05
-0.000102044
-0.000127006
-9.96928e-05
-0.000185858
-9.64536e-05
-0.000253348
-9.15552e-05
-0.000332904
-8.25848e-05
-0.000429715
-6.02144e-05
-0.000559302
-0.000743853
1.25729e-05
8.8632e-05
1.75088e-05
5.13784e-05
2.06213e-05
1.23366e-05
2.19968e-05
-2.92694e-05
2.15395e-05
-7.44422e-05
1.89884e-05
-0.000124455
1.40002e-05
-0.00018087
6.44243e-06
-0.00024579
-3.58394e-06
-0.000322878
-1.47328e-05
-0.000418566
-2.21779e-05
-0.000551857
-0.000766031
0.000138828
7.84102e-05
0.000146175
4.40312e-05
0.00015075
7.76189e-06
0.000152407
-3.09262e-05
0.000150727
-7.27622e-05
0.000145017
-0.000118744
0.000134297
-0.00017015
0.000117399
-0.000228893
9.29743e-05
-0.000298452
6.03691e-05
-0.000385961
2.23523e-05
-0.00051384
-0.000743678
0.000267064
6.43669e-05
0.000277579
3.35163e-05
0.000284567
7.74721e-07
0.000287716
-3.40753e-05
0.000286346
-7.13919e-05
0.000279368
-0.000111767
0.000265135
-0.000155916
0.000241428
-0.000205186
0.000205078
-0.000262103
0.000152487
-0.000333369
8.13751e-05
-0.000442728
-0.000662303
0.000401973
4.67227e-05
0.000415722
1.97677e-05
0.000425507
-9.01005e-06
0.000430907
-3.94756e-05
0.000431057
-7.15412e-05
0.000424586
-0.000105295
0.000409277
-0.000140607
0.000381988
-0.000177897
0.000337579
-0.000217694
0.00026936
-0.000265149
0.000164788
-0.000338156
-0.000497515
0.000548931
2.70754e-05
0.00056487
3.82923e-06
0.000576935
-2.10752e-05
0.000584613
-4.71532e-05
0.000586904
-7.38325e-05
0.000582294
-0.000100685
0.000568277
-0.00012659
0.000541287
-0.000150907
0.00049456
-0.000170967
0.000419537
-0.000190126
0.000288308
-0.000206927
-0.000209207
0.000711954
8.07838e-06
0.000728128
-1.23444e-05
0.000741134
-3.4081e-05
0.000750329
-5.63483e-05
0.000754642
-7.81457e-05
0.000752542
-9.85847e-05
0.000741545
-0.000115593
0.000718434
-0.000127795
0.000676703
-0.000129237
0.000604148
-0.000117571
0.000452161
-5.49404e-05
0.000242955
6.07553e-05
-6.07552e-05
0.00011648
-5.57244e-05
0.000147966
-3.14861e-05
0.000160433
-1.24673e-05
0.000162072
-1.63907e-06
0.00013841
2.36622e-05
7.42222e-05
6.41881e-05
-3.54651e-05
0.000109687
-0.000235086
0.000199621
-0.000418456
0.00018337
-0.000549965
0.000131509
0.000102928
-0.000652893
5.06077e-05
-0.000111363
7.88648e-05
-8.39814e-05
7.6689e-05
-2.93102e-05
4.50844e-05
1.91373e-05
-2.51559e-05
6.86014e-05
-0.000142362
0.000140868
-0.000297205
0.000219031
-0.000438153
0.000250636
-0.00049315
0.000254618
-0.000527163
0.000217383
-0.000566864
0.00017121
0.00013563
-0.000599566
2.66393e-05
-0.000138002
2.71752e-05
-8.45173e-05
-4.28378e-06
2.14892e-06
-7.52336e-05
9.00872e-05
-0.00019083
0.000184198
-0.000312743
0.000262781
-0.000389771
0.000296059
-0.000431719
0.000292584
-0.000445585
0.000268484
-0.000455576
0.000227375
-0.000469425
0.000185059
0.000146154
-0.000479948
-2.54139e-05
-0.000112588
-6.07055e-05
-4.92255e-05
-0.0001169
5.83439e-05
-0.000193576
0.000166763
-0.000271543
0.000262165
-0.000322118
0.000313356
-0.000345922
0.000319864
-0.000354928
0.000301589
-0.000356575
0.000270131
-0.000358154
0.000228954
-0.000360311
0.000187216
0.000146773
-0.000360931
-5.15027e-05
-6.10851e-05
-0.000108858
8.12988e-06
-0.0001683
0.000117786
-0.00022331
0.000221774
-0.000259168
0.000298023
-0.000269931
0.000324118
-0.000267506
0.000317439
-0.000259414
0.000293498
-0.000249374
0.000260092
-0.000242044
0.000221624
-0.000237045
0.000182217
0.000143085
-0.000233357
-6.32994e-05
2.21436e-06
-0.000121375
6.6206e-05
-0.000169313
0.000165724
-0.000197094
0.000249554
-0.000201491
0.000302421
-0.000190802
0.000313429
-0.000173595
0.000300232
-0.000155445
0.000275348
-0.000139222
0.000243869
-0.000126455
0.000208856
-0.000116912
0.000172675
0.000136143
-0.00010997
-6.70386e-05
6.9253e-05
-0.000119747
0.000118914
-0.000149454
0.000195431
-0.000151664
0.000251765
-0.000133111
0.000283869
-0.000106123
0.000286441
-7.83195e-05
0.000272428
-5.26569e-05
0.000249686
-3.07411e-05
0.000221953
-1.31453e-05
0.000191261
4.57184e-07
0.000159072
0.000125987
1.06139e-05
-7.06427e-05
0.000139896
-0.000110631
0.000158902
-0.000119387
0.000204187
-9.98058e-05
0.000232183
-6.38812e-05
0.000247944
-2.42589e-05
0.000246819
1.32325e-05
0.000234937
4.63657e-05
0.000216553
7.43461e-05
0.000193973
9.71486e-05
0.000168458
0.000115241
0.00014098
0.000112037
0.00012919
-6.12739e-05
0.00020117
-9.09714e-05
0.0001886
-7.88207e-05
0.000192037
-4.19854e-05
0.000195348
7.29421e-06
0.000198665
5.76536e-05
0.000196459
0.000104046
0.000188544
0.000144596
0.000176004
0.000178932
0.000159637
0.000207326
0.000140064
0.000230373
0.000117934
9.37243e-05
0.000248686
-6.54208e-05
0.000266591
-5.85127e-05
0.000181692
-1.71399e-05
0.000150664
3.73323e-05
0.000140876
9.75709e-05
0.000138426
0.000155688
0.000138343
0.000208151
0.000136081
0.000253849
0.000130306
0.000292832
0.000120653
0.000325582
0.000107314
0.000352738
9.07778e-05
7.15582e-05
0.000374904
3.21202e-06
0.000263379
4.67239e-05
0.00013818
0.000111659
8.57294e-05
0.000177248
7.52871e-05
0.000239679
7.59947e-05
0.000296509
8.15131e-05
0.000347028
8.5562e-05
0.000391309
8.60257e-05
0.000429775
8.21869e-05
0.000462911
7.4179e-05
0.000491173
6.25153e-05
4.77714e-05
0.00051496
0.000211611
5.17686e-05
0.000302176
4.76146e-05
0.000367343
2.05629e-05
0.000418524
2.4106e-05
0.000461137
3.33819e-05
0.000499695
4.29556e-05
0.000535484
4.97727e-05
0.000568712
5.27981e-05
0.000599326
5.15735e-05
0.000627194
4.63105e-05
0.000652194
3.75154e-05
0.00067423
2.57359e-05
-0.000723977
7.10836e-05
-0.000768272
4.42952e-05
-0.000787758
1.94868e-05
-0.000784127
-3.63164e-06
-0.000758867
-2.52597e-05
-0.000711676
-4.71905e-05
-0.000640311
-7.13655e-05
-0.000543475
-9.68363e-05
-0.000418574
-0.0001249
-0.000266275
-0.000152299
-0.000106039
-0.000160236
-0.000106039
-0.000623581
9.50978e-05
-0.000638738
5.94524e-05
-0.000644663
2.54119e-05
-0.00064145
-6.84442e-06
-0.000627741
-3.89684e-05
-0.000601134
-7.37973e-05
-0.000560293
-0.000112207
-0.000502303
-0.000154825
-0.000424487
-0.000202716
-0.000323943
-0.000252843
-0.000192283
-0.000291896
-0.000298322
-0.000489849
0.000104999
-0.000496221
6.58241e-05
-0.000498499
2.76907e-05
-0.000494867
-1.04762e-05
-0.000483308
-5.05282e-05
-0.000462979
-9.41256e-05
-0.000432388
-0.000142799
-0.000390322
-0.000196891
-0.000334946
-0.000258092
-0.000260902
-0.000326887
-0.000157642
-0.000395156
-0.000455964
-0.00036175
0.000105818
-0.000361953
6.60271e-05
-0.000360369
2.61071e-05
-0.000355693
-1.51518e-05
-0.000346992
-5.92298e-05
-0.000333483
-0.000107634
-0.000313822
-0.000162459
-0.000286955
-0.000223759
-0.000250515
-0.000294532
-0.000199529
-0.000377873
-0.000122234
-0.00047245
-0.000578198
-0.00023124
0.0001037
-0.000229609
6.43968e-05
-0.000227675
2.41724e-05
-0.00022472
-1.81064e-05
-0.000220158
-6.37917e-05
-0.000213315
-0.000114477
-0.000203651
-0.000172124
-0.000189719
-0.00023769
-0.000169359
-0.000314892
-0.000140015
-0.000407217
-8.96098e-05
-0.000522856
-0.000667808
-0.000105354
9.90842e-05
-0.000102335
6.1378e-05
-0.000100376
2.22134e-05
-9.90574e-05
-1.94248e-05
-9.80618e-05
-6.47872e-05
-9.71549e-05
-0.000115384
-9.62975e-05
-0.000172981
-9.44896e-05
-0.000239498
-9.08716e-05
-0.00031851
-8.29288e-05
-0.00041516
-6.09174e-05
-0.000544867
-0.000728725
1.77411e-05
9.19572e-05
2.2354e-05
5.67652e-05
2.47857e-05
1.97818e-05
2.51931e-05
-1.98322e-05
2.35562e-05
-6.31501e-05
1.97047e-05
-0.000111532
1.33877e-05
-0.000166664
4.63992e-06
-0.00023075
-6.26449e-06
-0.000307605
-1.78093e-05
-0.000403615
-2.497e-05
-0.000537707
-0.000753695
0.000139455
8.1693e-05
0.000146426
4.97937e-05
0.000150283
1.59251e-05
0.000150966
-2.05146e-05
0.000148147
-6.03319e-05
0.000141237
-0.000104621
0.000129379
-0.000154806
0.00011159
-0.000212961
8.67725e-05
-0.000282788
5.4596e-05
-0.000371438
1.80678e-05
-0.000501178
-0.000735627
0.000262737
6.76419e-05
0.000272852
3.96793e-05
0.00027911
9.66674e-06
0.000281307
-2.27117e-05
0.000278874
-5.78985e-05
0.000270838
-9.65854e-05
0.00025569
-0.000139658
0.000231394
-0.000188664
0.000195057
-0.000246451
0.0001434
-0.000319781
7.49267e-05
-0.000432705
-0.0006607
0.000392517
5.00291e-05
0.000405847
2.63496e-05
0.000414908
6.05205e-07
0.000419405
-2.72084e-05
0.000418601
-5.70939e-05
0.000411265
-8.92494e-05
0.000395346
-0.000123738
0.000367887
-0.000161205
0.000323995
-0.000202559
0.000257224
-0.000253009
0.000156306
-0.000331788
-0.000504394
0.000534524
3.0466e-05
0.000550015
1.08581e-05
0.000561367
-1.07469e-05
0.000568211
-3.40519e-05
0.000569693
-5.85757e-05
0.000564472
-8.40287e-05
0.000550265
-0.00010953
0.000523685
-0.000134625
0.000478181
-0.000157055
0.000405312
-0.000180141
0.000278389
-0.000204865
-0.000226004
0.000693159
1.1537e-05
0.000708882
-4.86483e-06
0.000721183
-2.30471e-05
0.000729624
-4.24927e-05
0.000733335
-6.22867e-05
0.000731032
-8.17256e-05
0.00072056
-9.90581e-05
0.000698874
-0.000112939
0.000659607
-0.000117788
0.000590231
-0.000110765
0.000443678
-5.83114e-05
0.000217673
6.54805e-05
-6.54804e-05
0.000123397
-5.79162e-05
0.000154575
-3.11786e-05
0.000168008
-1.34321e-05
0.000166556
1.45179e-06
0.000131325
3.52306e-05
5.62348e-05
7.50907e-05
-8.11879e-05
0.000137423
-0.000293857
0.000212669
-0.000468035
0.000174178
-0.000597387
0.000129352
9.81105e-05
-0.000695497
5.21155e-05
-0.000117596
7.8816e-05
-8.46167e-05
7.24308e-05
-2.47932e-05
3.10465e-05
2.79523e-05
-5.39351e-05
8.64335e-05
-0.000187417
0.000168713
-0.000349791
0.000237465
-0.000474115
0.000261747
-0.000517401
0.000255955
-0.000555517
0.000212294
-0.000594584
0.000168419
0.000131128
-0.000627602
2.15164e-05
-0.000139112
1.4579e-05
-7.76792e-05
-2.71191e-05
1.6905e-05
-0.000112511
0.000113345
-0.000237329
0.000211251
-0.000349566
0.000280951
-0.000416425
0.000304323
-0.000452109
0.00029743
-0.00046449
0.000268337
-0.000476678
0.000224483
-0.000490973
0.000182713
0.000142308
-0.000502153
-3.49406e-05
-0.000104171
-8.0082e-05
-3.25377e-05
-0.000145092
8.19153e-05
-0.00022543
0.000193683
-0.000297661
0.000283483
-0.000340777
0.000324067
-0.000361451
0.000324997
-0.000369165
0.000305144
-0.000371049
0.000270221
-0.00037371
0.000227144
-0.000375946
0.00018495
0.000143344
-0.000376981
-5.94865e-05
-4.46846e-05
-0.000122113
3.00886e-05
-0.000183419
0.000143222
-0.000235974
0.000246237
-0.000267017
0.000314526
-0.000276434
0.000333484
-0.000275466
0.00032403
-0.000267615
0.000297294
-0.000258921
0.000261527
-0.000253085
0.000221308
-0.000248976
0.000180841
0.000140473
-0.000246105
-6.5989e-05
2.13045e-05
-0.000125409
8.95092e-05
-0.000172083
0.000189896
-0.000197439
0.000271593
-0.00020087
0.000317957
-0.000191644
0.000324258
-0.000176006
0.000308391
-0.000159489
0.000280777
-0.000144973
0.000247011
-0.00013375
0.000210085
-0.000125263
0.000172354
0.000134239
-0.000119029
-6.58972e-05
8.72018e-05
-0.00011687
0.000140482
-0.000144428
0.000217454
-0.000145396
0.000272561
-0.000127658
0.000300219
-0.000102577
0.000299178
-7.66206e-05
0.000282435
-5.28534e-05
0.00025701
-3.27003e-05
0.000226858
-1.65863e-05
0.000193972
-4.01263e-06
0.00015978
0.000124677
5.54928e-06
-6.74894e-05
0.000154691
-0.000104196
0.000177189
-0.000110454
0.000223712
-8.97819e-05
0.000251889
-5.46219e-05
0.000265059
-1.66371e-05
0.000261193
1.90461e-05
0.000246752
5.03262e-05
0.00022573
7.66224e-05
0.000200562
9.80413e-05
0.000172553
0.000115172
0.00014265
0.000111243
0.000128606
-5.7003e-05
0.000211695
-8.26876e-05
0.000202874
-6.76557e-05
0.00020868
-2.91498e-05
0.000213383
2.00373e-05
0.000215872
6.92709e-05
0.00021196
0.000114134
0.000201889
0.000153034
0.00018683
0.00018584
0.000167756
0.000212985
0.000145408
0.000235162
0.000120473
9.33846e-05
0.000253021
-6.0486e-05
0.000272181
-4.97291e-05
0.000192117
-4.77449e-06
0.000163726
5.19737e-05
0.000156635
0.000112802
0.000155044
0.000170451
0.000154311
0.000221961
0.000150379
0.0002665
0.000142291
0.000304324
0.000129931
0.000336082
0.000113651
0.000362532
9.40234e-05
7.15878e-05
0.000384329
7.62233e-06
0.000264559
5.66576e-05
0.000143082
0.000124901
9.54829e-05
0.000192685
8.8851e-05
0.000256126
9.16036e-05
0.000313291
9.71462e-05
0.000363719
9.99505e-05
0.000407603
9.84072e-05
0.000445486
9.20479e-05
0.000477997
8.11401e-05
0.000505767
6.62535e-05
4.80715e-05
0.000529283
0.000219176
4.53823e-05
0.000314269
4.79891e-05
0.000381185
2.85674e-05
0.000433908
3.61278e-05
0.000478167
4.73451e-05
0.000518095
5.72181e-05
0.000554799
6.32473e-05
0.000588431
6.47745e-05
0.000619015
6.14642e-05
0.000646564
5.35914e-05
0.000671195
4.16227e-05
0.000692957
2.631e-05
-0.000763818
6.83208e-05
-0.000804516
4.0698e-05
-0.000821137
1.6621e-05
-0.000814383
-6.75433e-06
-0.000786295
-2.80879e-05
-0.000735775
-5.05192e-05
-0.000661253
-7.45227e-05
-0.000560908
-0.000100344
-0.000432585
-0.000128323
-0.000276554
-0.000156031
-0.000111969
-0.000164585
-0.000111969
-0.000650569
9.12878e-05
-0.000665086
5.52155e-05
-0.000669759
2.12941e-05
-0.000665343
-1.117e-05
-0.000649664
-4.37671e-05
-0.000621084
-7.90991e-05
-0.000577706
-0.000117901
-0.000517121
-0.000160929
-0.000436352
-0.000209092
-0.000332637
-0.000259745
-0.000197519
-0.000299703
-0.000309488
-0.000511558
0.000100693
-0.000517442
6.10994e-05
-0.000518762
2.26134e-05
-0.000513785
-1.61465e-05
-0.000500648
-5.69036e-05
-0.00047848
-0.000101267
-0.000445822
-0.000150559
-0.000401285
-0.000205466
-0.000343079
-0.000267298
-0.000266152
-0.000336672
-0.000159845
-0.00040601
-0.000469333
-0.000378196
0.000101908
-0.000378461
6.13644e-05
-0.000376382
2.05343e-05
-0.000370786
-2.17419e-05
-0.000360798
-6.68921e-05
-0.000345635
-0.000116429
-0.000324067
-0.000172127
-0.000295122
-0.000234411
-0.000256504
-0.000305917
-0.000203695
-0.000389481
-0.000124712
-0.000484993
-0.000594045
-0.000244274
0.000100077
-0.000242486
5.95764e-05
-0.000239981
1.80301e-05
-0.000236091
-2.56319e-05
-0.000230281
-7.2702e-05
-0.000221966
-0.000124744
-0.000210586
-0.000183507
-0.000194887
-0.000250109
-0.000172798
-0.000328006
-0.000141533
-0.000420745
-8.95935e-05
-0.000536932
-0.000683639
-0.000114608
9.56558e-05
-0.000111347
5.63147e-05
-0.000108766
1.54492e-05
-0.000106504
-2.78938e-05
-0.000104306
-7.48994e-05
-0.000102044
-0.000127006
-9.9693e-05
-0.000185858
-9.64538e-05
-0.000253348
-9.15554e-05
-0.000332904
-8.25849e-05
-0.000429716
-6.02145e-05
-0.000559303
-0.000743853
1.25726e-05
8.86326e-05
1.75086e-05
5.13788e-05
2.06211e-05
1.23369e-05
2.19966e-05
-2.92692e-05
2.15393e-05
-7.44421e-05
1.89882e-05
-0.000124455
1.4e-05
-0.00018087
6.44225e-06
-0.00024579
-3.58408e-06
-0.000322878
-1.47329e-05
-0.000418567
-2.2178e-05
-0.000551857
-0.000766031
0.000138828
7.84108e-05
0.000146175
4.40317e-05
0.00015075
7.76222e-06
0.000152407
-3.0926e-05
0.000150727
-7.2762e-05
0.000145016
-0.000118744
0.000134296
-0.00017015
0.000117399
-0.000228893
9.29742e-05
-0.000298453
6.0369e-05
-0.000385961
2.23522e-05
-0.000513841
-0.000743679
0.000267064
6.43674e-05
0.000277579
3.35167e-05
0.000284567
7.75036e-07
0.000287716
-3.40751e-05
0.000286346
-7.13918e-05
0.000279368
-0.000111767
0.000265135
-0.000155916
0.000241427
-0.000205186
0.000205078
-0.000262103
0.000152487
-0.00033337
8.13751e-05
-0.000442729
-0.000662304
0.000401973
4.67232e-05
0.000415722
1.97681e-05
0.000425507
-9.00976e-06
0.000430907
-3.94754e-05
0.000431057
-7.15411e-05
0.000424586
-0.000105295
0.000409277
-0.000140607
0.000381988
-0.000177897
0.000337579
-0.000217694
0.00026936
-0.00026515
0.000164788
-0.000338157
-0.000497516
0.000548931
2.70758e-05
0.00056487
3.82956e-06
0.000576935
-2.10749e-05
0.000584613
-4.71531e-05
0.000586904
-7.38324e-05
0.000582294
-0.000100685
0.000568277
-0.00012659
0.000541287
-0.000150907
0.00049456
-0.000170968
0.000419537
-0.000190127
0.000288308
-0.000206928
-0.000209207
0.000711954
8.0787e-06
0.000728128
-1.23441e-05
0.000741134
-3.40808e-05
0.000750329
-5.63482e-05
0.000754642
-7.81457e-05
0.000752542
-9.85847e-05
0.000741545
-0.000115593
0.000718434
-0.000127796
0.000676703
-0.000129237
0.000604148
-0.000117571
0.000452161
-5.49408e-05
0.000242954
6.07553e-05
-6.07552e-05
0.00011648
-5.57244e-05
0.000147966
-3.14861e-05
0.000160433
-1.24673e-05
0.000162072
-1.63908e-06
0.00013841
2.36622e-05
7.42223e-05
6.41881e-05
-3.5465e-05
0.000109687
-0.000235086
0.000199621
-0.000418456
0.00018337
-0.000549965
0.000131509
0.000102928
-0.000652893
5.06077e-05
-0.000111363
7.88648e-05
-8.39815e-05
7.6689e-05
-2.93102e-05
4.50845e-05
1.91373e-05
-2.51558e-05
6.86013e-05
-0.000142362
0.000140868
-0.000297204
0.000219031
-0.000438153
0.000250636
-0.00049315
0.000254618
-0.000527163
0.000217383
-0.000566864
0.00017121
0.00013563
-0.000599566
2.66393e-05
-0.000138002
2.71753e-05
-8.45173e-05
-4.28364e-06
2.14885e-06
-7.52334e-05
9.00871e-05
-0.000190829
0.000184197
-0.000312742
0.000262781
-0.000389771
0.000296059
-0.000431719
0.000292584
-0.000445585
0.000268484
-0.000455576
0.000227375
-0.000469425
0.000185059
0.000146154
-0.000479948
-2.54138e-05
-0.000112588
-6.07054e-05
-4.92256e-05
-0.0001169
5.83438e-05
-0.000193576
0.000166763
-0.000271543
0.000262165
-0.000322118
0.000313356
-0.000345922
0.000319864
-0.000354928
0.00030159
-0.000356575
0.000270131
-0.000358154
0.000228954
-0.000360311
0.000187216
0.000146773
-0.000360931
-5.15027e-05
-6.10852e-05
-0.000108858
8.12976e-06
-0.0001683
0.000117786
-0.00022331
0.000221773
-0.000259168
0.000298023
-0.000269931
0.000324118
-0.000267506
0.000317439
-0.000259414
0.000293498
-0.000249374
0.000260092
-0.000242044
0.000221624
-0.000237045
0.000182217
0.000143085
-0.000233357
-6.32994e-05
2.21426e-06
-0.000121375
6.62059e-05
-0.000169313
0.000165723
-0.000197094
0.000249554
-0.000201491
0.000302421
-0.000190802
0.000313429
-0.000173595
0.000300232
-0.000155445
0.000275349
-0.000139222
0.000243869
-0.000126455
0.000208856
-0.000116912
0.000172675
0.000136144
-0.00010997
-6.70386e-05
6.9253e-05
-0.000119747
0.000118914
-0.000149454
0.00019543
-0.000151664
0.000251765
-0.000133111
0.000283868
-0.000106123
0.000286441
-7.83195e-05
0.000272428
-5.26569e-05
0.000249686
-3.0741e-05
0.000221953
-1.31452e-05
0.000191261
4.57263e-07
0.000159072
0.000125987
1.0614e-05
-7.06427e-05
0.000139896
-0.000110631
0.000158902
-0.000119387
0.000204187
-9.98058e-05
0.000232183
-6.38812e-05
0.000247944
-2.42589e-05
0.000246819
1.32325e-05
0.000234937
4.63658e-05
0.000216553
7.43462e-05
0.000193973
9.71487e-05
0.000168458
0.000115241
0.00014098
0.000112037
0.000129191
-6.12739e-05
0.00020117
-9.09714e-05
0.0001886
-7.88207e-05
0.000192037
-4.19853e-05
0.000195348
7.29423e-06
0.000198664
5.76536e-05
0.000196459
0.000104046
0.000188544
0.000144596
0.000176004
0.000178932
0.000159637
0.000207326
0.000140064
0.000230373
0.000117934
9.37244e-05
0.000248686
-6.54208e-05
0.000266591
-5.85127e-05
0.000181692
-1.71399e-05
0.000150664
3.73323e-05
0.000140876
9.7571e-05
0.000138426
0.000155688
0.000138342
0.000208151
0.000136081
0.000253849
0.000130306
0.000292832
0.000120653
0.000325582
0.000107314
0.000352738
9.07779e-05
7.15583e-05
0.000374904
3.21208e-06
0.000263379
4.6724e-05
0.00013818
0.000111659
8.57293e-05
0.000177248
7.5287e-05
0.000239679
7.59946e-05
0.000296509
8.15131e-05
0.000347028
8.5562e-05
0.000391309
8.60257e-05
0.000429775
8.21869e-05
0.000462911
7.41791e-05
0.000491173
6.25153e-05
4.77714e-05
0.00051496
0.000211611
5.17684e-05
0.000302177
4.76144e-05
0.000367343
2.05628e-05
0.000418524
2.41059e-05
0.000461137
3.33818e-05
0.000499695
4.29556e-05
0.000535484
4.97727e-05
0.000568712
5.27981e-05
0.000599326
5.15736e-05
0.000627194
4.63105e-05
0.000652194
3.75155e-05
0.00067423
2.57359e-05
-0.000723977
7.10836e-05
-0.000768272
4.42952e-05
-0.000787759
1.94869e-05
-0.000784127
-3.63163e-06
-0.000758867
-2.52597e-05
-0.000711677
-4.71905e-05
-0.000640311
-7.13655e-05
-0.000543475
-9.68363e-05
-0.000418574
-0.0001249
-0.000266275
-0.000152299
-0.000106039
-0.000160236
-0.000106039
-0.000623581
9.50979e-05
-0.000638738
5.94524e-05
-0.000644663
2.5412e-05
-0.00064145
-6.8444e-06
-0.000627741
-3.89684e-05
-0.000601134
-7.37973e-05
-0.000560293
-0.000112207
-0.000502303
-0.000154825
-0.000424487
-0.000202716
-0.000323943
-0.000252843
-0.000192283
-0.000291896
-0.000298322
-0.000489849
0.000104999
-0.000496221
6.58241e-05
-0.000498499
2.76908e-05
-0.000494868
-1.04761e-05
-0.000483308
-5.05282e-05
-0.000462979
-9.41256e-05
-0.000432388
-0.000142799
-0.000390322
-0.000196891
-0.000334946
-0.000258092
-0.000260902
-0.000326887
-0.000157642
-0.000395156
-0.000455964
-0.000361749
0.000105818
-0.000361953
6.60272e-05
-0.000360369
2.61071e-05
-0.000355693
-1.51517e-05
-0.000346992
-5.92297e-05
-0.000333483
-0.000107634
-0.000313822
-0.000162459
-0.000286955
-0.000223759
-0.000250515
-0.000294532
-0.000199529
-0.000377873
-0.000122234
-0.000472451
-0.000578198
-0.00023124
0.0001037
-0.000229609
6.43969e-05
-0.000227675
2.41725e-05
-0.00022472
-1.81063e-05
-0.000220158
-6.37916e-05
-0.000213315
-0.000114477
-0.000203651
-0.000172124
-0.000189719
-0.00023769
-0.000169359
-0.000314892
-0.000140015
-0.000407217
-8.96099e-05
-0.000522856
-0.000667808
-0.000105354
9.90843e-05
-0.000102335
6.13781e-05
-0.000100376
2.22135e-05
-9.90573e-05
-1.94248e-05
-9.80618e-05
-6.47871e-05
-9.71549e-05
-0.000115384
-9.62975e-05
-0.000172981
-9.44896e-05
-0.000239498
-9.08717e-05
-0.00031851
-8.29289e-05
-0.00041516
-6.09174e-05
-0.000544867
-0.000728725
1.77412e-05
9.19572e-05
2.23541e-05
5.67653e-05
2.47857e-05
1.97819e-05
2.51932e-05
-1.98321e-05
2.35562e-05
-6.31501e-05
1.97048e-05
-0.000111532
1.33877e-05
-0.000166664
4.63992e-06
-0.00023075
-6.26451e-06
-0.000307605
-1.78094e-05
-0.000403615
-2.497e-05
-0.000537707
-0.000753695
0.000139455
8.16931e-05
0.000146426
4.97938e-05
0.000150283
1.59252e-05
0.000150966
-2.05145e-05
0.000148147
-6.03318e-05
0.000141237
-0.000104621
0.000129379
-0.000154806
0.00011159
-0.000212961
8.67725e-05
-0.000282788
5.45959e-05
-0.000371438
1.80678e-05
-0.000501178
-0.000735627
0.000262737
6.7642e-05
0.000272852
3.96793e-05
0.00027911
9.66683e-06
0.000281308
-2.27117e-05
0.000278874
-5.78984e-05
0.000270838
-9.65853e-05
0.00025569
-0.000139658
0.000231394
-0.000188664
0.000195057
-0.000246451
0.0001434
-0.000319781
7.49266e-05
-0.000432705
-0.000660701
0.000392517
5.00292e-05
0.000405847
2.63497e-05
0.000414908
6.05307e-07
0.000419405
-2.72083e-05
0.000418601
-5.70938e-05
0.000411265
-8.92493e-05
0.000395346
-0.000123738
0.000367887
-0.000161205
0.000323995
-0.000202559
0.000257224
-0.000253009
0.000156306
-0.000331788
-0.000504394
0.000534524
3.04661e-05
0.000550015
1.08582e-05
0.000561367
-1.07468e-05
0.000568211
-3.40518e-05
0.000569693
-5.85756e-05
0.000564472
-8.40286e-05
0.000550265
-0.00010953
0.000523685
-0.000134625
0.000478181
-0.000157055
0.000405312
-0.000180141
0.000278389
-0.000204865
-0.000226005
0.000693159
1.1537e-05
0.000708882
-4.86475e-06
0.000721183
-2.3047e-05
0.000729624
-4.24926e-05
0.000733335
-6.22866e-05
0.000731032
-8.17255e-05
0.00072056
-9.9058e-05
0.000698874
-0.000112939
0.000659607
-0.000117788
0.000590231
-0.000110765
0.000443678
-5.83115e-05
0.000217673
0.00081796
9.52406e-05
-0.000867818
0.000798643
6.73066e-05
0.00077468
5.25308e-05
0.000764344
4.64643e-05
0.000765239
4.64501e-05
0.000774101
4.8356e-05
0.000787999
4.93492e-05
0.000804724
4.80497e-05
0.000822704
4.34838e-05
0.000840878
3.54166e-05
0.000858681
2.38195e-05
9.38152e-06
0.00087561
0.00108705
9.1496e-05
-0.0010833
0.00107598
7.83794e-05
0.00105981
6.87012e-05
0.00104499
6.12777e-05
0.00103494
5.65054e-05
0.0010303
5.29913e-05
0.00103048
4.91669e-05
0.0010345
4.40302e-05
0.00104138
3.66053e-05
0.00105029
2.65102e-05
0.00106068
1.34291e-05
-1.79006e-06
0.00107185
0.00128381
8.37046e-05
-0.00127602
0.00128372
7.84716e-05
0.00127938
7.3048e-05
0.00127298
6.76695e-05
0.00126661
6.28784e-05
0.00126155
5.80518e-05
0.00125843
5.22837e-05
0.00125749
4.49749e-05
0.00125871
3.53808e-05
0.00126203
2.31969e-05
0.00126736
8.10214e-06
-8.6794e-06
0.00127424
0.00147274
-0.00146836
7.9328e-05
0.00147568
7.55321e-05
0.00147661
7.21222e-05
0.00147579
6.84828e-05
0.0014739
6.47731e-05
0.00147164
6.03066e-05
0.00146967
5.42604e-05
0.00146851
4.61365e-05
0.00146853
3.53559e-05
0.00147006
2.1672e-05