/*--------------------------------*- C++ -*----------------------------------*\
| =========                 |                                                 |
| \\      /  F ield         | OpenFOAM: The Open Source CFD Toolbox           |
|  \\    /   O peration     | Version:  2212                                  |
|   \\  /    A nd           | Website:  www.openfoam.com                      |
|    \\/     M anipulation  |                                                 |
\*---------------------------------------------------------------------------*/
FoamFile
{
    version     2.0;
    format      ascii;
    arch        "LSB;label=32;scalar=64";
    class       volScalarField;
    location    "0.09";
    object      rho;
}
// * * * * * * * * * * * * * * * * * * * * * * * * * * * * * * * * * * * * * //

dimensions      [1 -3 0 0 0 0 0];

internalField   nonuniform List<scalar> 
3072
(
1.16825
1.16804
1.16793
1.16786
1.16788
1.16807
1.16877
1.17
1.16962
1.16957
1.16971
1.16965
1.16985
1.16943
1.16946
1.16961
1.1701
1.1703
1.17092
1.17177
1.17289
1.17369
1.17417
1.1744
1.17099
1.17042
1.17067
1.171
1.17142
1.17202
1.17285
1.17356
1.1743
1.17484
1.17526
1.17554
1.1728
1.17223
1.17256
1.17297
1.17359
1.17431
1.17503
1.17569
1.17625
1.17665
1.17696
1.1772
1.17447
1.17419
1.17456
1.17506
1.17571
1.17639
1.17703
1.17758
1.17801
1.17831
1.17854
1.17872
1.17629
1.17623
1.1766
1.17715
1.17775
1.17833
1.17884
1.17924
1.17955
1.17977
1.17994
1.18006
1.17808
1.17824
1.17861
1.17915
1.17967
1.18013
1.1805
1.18077
1.18097
1.1811
1.1812
1.18127
1.17982
1.18024
1.18055
1.18103
1.18144
1.18177
1.18199
1.18214
1.18223
1.18229
1.18232
1.18234
1.18172
1.18219
1.18235
1.18274
1.183
1.18318
1.18328
1.18332
1.18333
1.18331
1.18329
1.18327
1.18346
1.18378
1.18386
1.18415
1.18429
1.18436
1.18437
1.18433
1.18427
1.18421
1.18414
1.18409
1.18487
1.18519
1.18508
1.18531
1.1854
1.1854
1.18534
1.18524
1.18514
1.18503
1.18493
1.18486
1.18492
1.18631
1.18629
1.18644
1.18647
1.1864
1.18628
1.18613
1.18597
1.18583
1.1857
1.18559
1.1698
1.16998
1.17032
1.17081
1.17139
1.17195
1.17257
1.17304
1.17335
1.17329
1.17306
1.17242
1.17462
1.17474
1.17487
1.17503
1.17524
1.17545
1.17563
1.17574
1.17573
1.17562
1.17507
1.17354
1.17572
1.17587
1.17604
1.17623
1.17645
1.17664
1.17679
1.17683
1.17671
1.17654
1.17604
1.17388
1.1774
1.17758
1.17773
1.17786
1.17797
1.17805
1.17808
1.17801
1.1778
1.17749
1.17702
1.17474
1.17886
1.17898
1.17909
1.17917
1.17924
1.17928
1.17928
1.17921
1.17902
1.1787
1.17831
1.1762
1.18017
1.18025
1.18033
1.1804
1.18046
1.18051
1.18053
1.18052
1.18042
1.18019
1.17992
1.17815
1.18133
1.18138
1.18144
1.18151
1.18158
1.18167
1.18176
1.18185
1.1819
1.18186
1.18182
1.18058
1.18236
1.18239
1.18243
1.1825
1.18261
1.18275
1.18293
1.18315
1.1834
1.18362
1.18399
1.1834
1.18326
1.18327
1.18331
1.18339
1.18352
1.18372
1.18399
1.18435
1.18481
1.18535
1.18621
1.18661
1.18406
1.18406
1.18409
1.18418
1.18433
1.18457
1.18491
1.18539
1.18603
1.18687
1.1883
1.18973
1.1848
1.18478
1.1848
1.18488
1.18504
1.1853
1.18568
1.18622
1.18698
1.18803
1.19
1.19254
1.18552
1.18547
1.18547
1.18553
1.18567
1.18591
1.18628
1.18682
1.18758
1.1887
1.19079
1.19456
1.16816
1.16798
1.16788
1.16781
1.16784
1.16796
1.16845
1.16984
1.16944
1.16939
1.16954
1.16951
1.16977
1.16939
1.1694
1.1695
1.16993
1.17023
1.17061
1.17135
1.17242
1.17329
1.17381
1.17408
1.17088
1.17033
1.17053
1.17084
1.17123
1.17171
1.17247
1.17317
1.1739
1.17446
1.17489
1.17521
1.17265
1.17206
1.17235
1.1727
1.17326
1.17392
1.17463
1.17529
1.17587
1.1763
1.17662
1.17687
1.17428
1.17395
1.17428
1.17473
1.17534
1.17599
1.17664
1.1772
1.17765
1.17798
1.17822
1.1784
1.17611
1.17598
1.17632
1.17683
1.17741
1.17797
1.17849
1.1789
1.17922
1.17945
1.17962
1.17975
1.17789
1.17801
1.17835
1.17887
1.17936
1.17981
1.18018
1.18046
1.18067
1.18081
1.18091
1.18098
1.17965
1.18001
1.18032
1.18078
1.18117
1.18149
1.18171
1.18187
1.18196
1.18201
1.18204
1.18206
1.18156
1.18196
1.18213
1.18251
1.18277
1.18294
1.18304
1.18308
1.18308
1.18306
1.18304
1.18301
1.18328
1.18356
1.18365
1.18394
1.18409
1.18416
1.18417
1.18413
1.18406
1.18399
1.18392
1.18386
1.18469
1.18498
1.1849
1.18514
1.18524
1.18524
1.18518
1.18508
1.18496
1.18484
1.18473
1.18464
1.18478
1.1861
1.18612
1.1863
1.18635
1.18629
1.18616
1.186
1.18583
1.18567
1.18552
1.1854
1.16962
1.16979
1.17008
1.17052
1.17105
1.17155
1.17213
1.17254
1.17281
1.17273
1.17249
1.17186
1.17431
1.17443
1.17453
1.17467
1.17484
1.17501
1.17516
1.17524
1.17521
1.17507
1.17452
1.17303
1.17539
1.17554
1.17569
1.17586
1.17606
1.17623
1.17635
1.17637
1.17624
1.17606
1.17556
1.17345
1.17706
1.17724
1.17738
1.1775
1.1776
1.17766
1.17767
1.17759
1.17737
1.17705
1.17658
1.17433
1.17854
1.17865
1.17875
1.17883
1.17888
1.17891
1.17889
1.17881
1.17861
1.17829
1.17791
1.17579
1.17985
1.17993
1.18
1.18006
1.18012
1.18015
1.18016
1.18014
1.18002
1.17978
1.1795
1.17772
1.18103
1.18108
1.18113
1.18119
1.18126
1.18133
1.18141
1.18148
1.18151
1.18144
1.18138
1.18011
1.18208
1.1821
1.18214
1.18221
1.1823
1.18242
1.18259
1.18279
1.18301
1.1832
1.18351
1.18287
1.183
1.183
1.18304
1.18311
1.18323
1.18341
1.18366
1.18399
1.18442
1.18492
1.1857
1.18601
1.18382
1.18381
1.18384
1.18391
1.18405
1.18428
1.1846
1.18505
1.18566
1.18645
1.18778
1.1891
1.18458
1.18455
1.18456
1.18464
1.18478
1.18502
1.18538
1.1859
1.18662
1.18762
1.1895
1.19192
1.1853
1.18525
1.18525
1.1853
1.18543
1.18566
1.18601
1.18652
1.18725
1.18833
1.19034
1.19406
1.16825
1.16804
1.16793
1.16786
1.16788
1.16807
1.16877
1.17
1.16962
1.16957
1.16971
1.16965
1.16985
1.16943
1.16946
1.16961
1.1701
1.1703
1.17092
1.17177
1.17289
1.17369
1.17417
1.1744
1.17099
1.17042
1.17067
1.171
1.17142
1.17202
1.17285
1.17356
1.1743
1.17484
1.17526
1.17554
1.1728
1.17223
1.17256
1.17297
1.17359
1.17431
1.17503
1.17569
1.17625
1.17665
1.17696
1.1772
1.17447
1.17419
1.17456
1.17506
1.17571
1.17639
1.17703
1.17758
1.17801
1.17831
1.17854
1.17872
1.17629
1.17623
1.1766
1.17715
1.17775
1.17833
1.17884
1.17924
1.17955
1.17977
1.17994
1.18006
1.17808
1.17824
1.17861
1.17915
1.17967
1.18013
1.1805
1.18077
1.18097
1.1811
1.1812
1.18127
1.17982
1.18024
1.18055
1.18103
1.18144
1.18176
1.18199
1.18214
1.18223
1.18229
1.18232
1.18234
1.18172
1.18219
1.18235
1.18274
1.183
1.18318
1.18328
1.18332
1.18333
1.18331
1.18329
1.18327
1.18346
1.18378
1.18386
1.18415
1.18429
1.18436
1.18437
1.18433
1.18427
1.18421
1.18414
1.18409
1.18487
1.18519
1.18508
1.18531
1.1854
1.1854
1.18534
1.18524
1.18514
1.18503
1.18493
1.18486
1.18492
1.18631
1.18629
1.18644
1.18647
1.1864
1.18628
1.18613
1.18597
1.18583
1.1857
1.18559
1.1698
1.16998
1.17031
1.17081
1.17139
1.17195
1.17257
1.17304
1.17335
1.17329
1.17306
1.17242
1.17462
1.17474
1.17487
1.17503
1.17524
1.17544
1.17563
1.17574
1.17573
1.17562
1.17507
1.17354
1.17572
1.17587
1.17604
1.17623
1.17645
1.17664
1.17679
1.17683
1.17671
1.17654
1.17604
1.17388
1.1774
1.17758
1.17773
1.17786
1.17797
1.17805
1.17808
1.17801
1.1778
1.17749
1.17702
1.17474
1.17886
1.17898
1.17909
1.17917
1.17924
1.17928
1.17928
1.17921
1.17902
1.1787
1.17831
1.1762
1.18017
1.18025
1.18033
1.1804
1.18046
1.18051
1.18053
1.18052
1.18042
1.18019
1.17992
1.17815
1.18133
1.18138
1.18144
1.18151
1.18158
1.18167
1.18176
1.18185
1.1819
1.18186
1.18182
1.18058
1.18236
1.18239
1.18243
1.1825
1.18261
1.18275
1.18293
1.18315
1.1834
1.18362
1.18399
1.1834
1.18326
1.18327
1.18331
1.18339
1.18352
1.18372
1.18399
1.18435
1.18481
1.18535
1.18621
1.18661
1.18406
1.18406
1.18409
1.18418
1.18433
1.18457
1.18491
1.18539
1.18603
1.18687
1.1883
1.18973
1.1848
1.18478
1.1848
1.18488
1.18504
1.1853
1.18568
1.18622
1.18698
1.18803
1.19
1.19254
1.18552
1.18547
1.18547
1.18553
1.18567
1.18591
1.18628
1.18682
1.18758
1.1887
1.19079
1.19456
1.16816
1.16798
1.16788
1.16781
1.16784
1.16796
1.16845
1.16984
1.16944
1.16939
1.16954
1.16951
1.16977
1.16939
1.1694
1.1695
1.16993
1.17023
1.17061
1.17135
1.17242
1.17329
1.17381
1.17408
1.17088
1.17033
1.17053
1.17084
1.17123
1.17171
1.17247
1.17317
1.1739
1.17446
1.17489
1.17521
1.17265
1.17206
1.17235
1.1727
1.17326
1.17392
1.17463
1.17529
1.17587
1.1763
1.17662
1.17687
1.17428
1.17395
1.17428
1.17473
1.17534
1.17599
1.17664
1.1772
1.17765
1.17798
1.17822
1.1784
1.17611
1.17598
1.17632
1.17683
1.17741
1.17797
1.17849
1.1789
1.17922
1.17945
1.17962
1.17975
1.17789
1.17801
1.17835
1.17887
1.17936
1.17981
1.18018
1.18046
1.18067
1.18081
1.18091
1.18098
1.17965
1.18001
1.18032
1.18078
1.18117
1.18149
1.18171
1.18187
1.18196
1.18201
1.18204
1.18206
1.18156
1.18196
1.18213
1.18251
1.18277
1.18294
1.18304
1.18308
1.18308
1.18306
1.18304
1.18301
1.18328
1.18356
1.18365
1.18394
1.18409
1.18416
1.18417
1.18413
1.18406
1.18399
1.18392
1.18386
1.18469
1.18498
1.1849
1.18514
1.18524
1.18524
1.18518
1.18508
1.18496
1.18484
1.18473
1.18464
1.18478
1.1861
1.18612
1.1863
1.18635
1.18629
1.18616
1.186
1.18583
1.18567
1.18552
1.1854
1.16962
1.16979
1.17008
1.17052
1.17105
1.17155
1.17213
1.17254
1.17281
1.17273
1.17249
1.17186
1.17431
1.17443
1.17453
1.17467
1.17484
1.17501
1.17516
1.17524
1.17521
1.17507
1.17452
1.17303
1.17539
1.17554
1.17569
1.17586
1.17606
1.17623
1.17635
1.17637
1.17624
1.17606
1.17556
1.17345
1.17706
1.17724
1.17738
1.1775
1.1776
1.17766
1.17767
1.17759
1.17737
1.17705
1.17658
1.17433
1.17854
1.17865
1.17875
1.17883
1.17888
1.17891
1.17889
1.17881
1.17861
1.17829
1.17791
1.17579
1.17985
1.17993
1.18
1.18006
1.18012
1.18015
1.18016
1.18014
1.18002
1.17978
1.1795
1.17772
1.18103
1.18108
1.18113
1.18119
1.18126
1.18133
1.18141
1.18148
1.18151
1.18144
1.18138
1.18011
1.18208
1.1821
1.18214
1.18221
1.1823
1.18242
1.18259
1.18279
1.18301
1.1832
1.18351
1.18287
1.183
1.183
1.18304
1.18311
1.18323
1.18341
1.18366
1.18399
1.18442
1.18492
1.1857
1.18601
1.18382
1.18381
1.18384
1.18391
1.18405
1.18428
1.1846
1.18505
1.18566
1.18645
1.18778
1.1891
1.18458
1.18455
1.18456
1.18464
1.18478
1.18502
1.18538
1.1859
1.18662
1.18762
1.1895
1.19192
1.1853
1.18525
1.18525
1.1853
1.18543
1.18566
1.18601
1.18652
1.18725
1.18833
1.19034
1.19406
1.18788
1.18795
1.18778
1.18763
1.18748
1.18732
1.18714
1.18694
1.18676
1.18658
1.18643
1.1863
1.18811
1.18788
1.18794
1.18795
1.18793
1.18785
1.18772
1.18756
1.18739
1.18722
1.18706
1.18692
1.18814
1.18803
1.18808
1.18812
1.18812
1.18809
1.18802
1.18792
1.1878
1.18767
1.18754
1.18741
1.18815
1.18813
1.18816
1.18818
1.1882
1.18819
1.18816
1.18811
1.18804
1.18796
1.18787
1.18777
1.18619
1.18613
1.1861
1.18613
1.18623
1.18643
1.18674
1.18722
1.18783
1.18868
1.18945
1.19067
1.1868
1.18671
1.18666
1.18665
1.1867
1.18685
1.18708
1.18746
1.18793
1.18858
1.18899
1.18941
1.1873
1.18719
1.18711
1.18707
1.18708
1.18715
1.1873
1.18757
1.1879
1.18839
1.18869
1.18889
1.18768
1.18756
1.18746
1.18738
1.18733
1.18733
1.18738
1.18752
1.18772
1.18807
1.18833
1.18858
1.18779
1.18782
1.18767
1.18755
1.18741
1.18725
1.18706
1.18685
1.18664
1.18645
1.18626
1.18611
1.18814
1.18785
1.18788
1.1879
1.18787
1.18779
1.18764
1.18747
1.18728
1.18708
1.18689
1.18672
1.18827
1.18809
1.1881
1.18811
1.18809
1.18804
1.18795
1.18783
1.18768
1.18751
1.18734
1.18717
1.18839
1.18832
1.1883
1.18829
1.18826
1.18821
1.18815
1.18806
1.18795
1.18781
1.18766
1.18751
1.18599
1.18591
1.18588
1.18591
1.186
1.18619
1.18649
1.18695
1.18754
1.18837
1.18914
1.19043
1.18658
1.18648
1.18643
1.18643
1.18649
1.18662
1.18685
1.18721
1.18767
1.18831
1.18875
1.18922
1.18703
1.18693
1.18687
1.18684
1.18687
1.18695
1.18709
1.18735
1.18767
1.18814
1.18846
1.18867
1.18737
1.18728
1.18722
1.18718
1.18717
1.1872
1.18725
1.18737
1.18754
1.18784
1.18808
1.18831
1.18788
1.18795
1.18778
1.18763
1.18748
1.18732
1.18714
1.18694
1.18676
1.18658
1.18643
1.1863
1.18811
1.18788
1.18794
1.18795
1.18793
1.18785
1.18772
1.18756
1.18739
1.18722
1.18706
1.18692
1.18814
1.18803
1.18808
1.18812
1.18812
1.18809
1.18802
1.18792
1.1878
1.18767
1.18754
1.18741
1.18815
1.18813
1.18816
1.18818
1.1882
1.18819
1.18816
1.18811
1.18804
1.18796
1.18787
1.18777
1.18619
1.18613
1.1861
1.18613
1.18623
1.18643
1.18674
1.18722
1.18783
1.18868
1.18945
1.19067
1.1868
1.18671
1.18666
1.18665
1.1867
1.18685
1.18708
1.18746
1.18793
1.18858
1.18899
1.18941
1.1873
1.18719
1.18711
1.18707
1.18708
1.18715
1.1873
1.18757
1.1879
1.18839
1.18869
1.18889
1.18768
1.18756
1.18746
1.18738
1.18733
1.18733
1.18738
1.18752
1.18772
1.18807
1.18833
1.18858
1.18779
1.18782
1.18767
1.18755
1.18741
1.18725
1.18706
1.18685
1.18664
1.18645
1.18626
1.18611
1.18814
1.18785
1.18788
1.1879
1.18787
1.18779
1.18764
1.18747
1.18728
1.18708
1.18689
1.18672
1.18827
1.18809
1.1881
1.18811
1.18809
1.18804
1.18795
1.18783
1.18768
1.18751
1.18734
1.18717
1.18839
1.18832
1.1883
1.18829
1.18826
1.18821
1.18815
1.18806
1.18795
1.18781
1.18766
1.18751
1.18599
1.18591
1.18588
1.18591
1.186
1.18619
1.18649
1.18695
1.18754
1.18837
1.18914
1.19043
1.18658
1.18648
1.18643
1.18643
1.18649
1.18662
1.18685
1.18721
1.18767
1.18831
1.18875
1.18922
1.18703
1.18693
1.18687
1.18684
1.18687
1.18695
1.18709
1.18735
1.18767
1.18814
1.18846
1.18867
1.18737
1.18728
1.18722
1.18718
1.18717
1.1872
1.18725
1.18737
1.18754
1.18784
1.18808
1.18831
1.18814
1.18819
1.18823
1.18827
1.18829
1.18829
1.18827
1.18824
1.1882
1.18814
1.18808
1.18802
1.18816
1.18823
1.18829
1.18834
1.18837
1.18838
1.18838
1.18836
1.18832
1.18828
1.18824
1.1882
1.18817
1.18825
1.18832
1.18838
1.18842
1.18844
1.18844
1.18842
1.18839
1.18836
1.18833
1.18831
1.18818
1.18827
1.18834
1.1884
1.18844
1.18846
1.18846
1.18845
1.18842
1.18839
1.18837
1.18836
1.18797
1.18788
1.18781
1.18774
1.18769
1.18767
1.18768
1.18773
1.18782
1.18803
1.18817
1.18834
1.18818
1.18813
1.18809
1.18806
1.18804
1.18803
1.18804
1.18808
1.18815
1.18822
1.18826
1.18829
1.18833
1.1883
1.18828
1.18827
1.18826
1.18827
1.18828
1.18829
1.18831
1.18832
1.18829
1.18825
1.18846
1.18842
1.18841
1.18841
1.18841
1.18841
1.1884
1.18839
1.18837
1.18834
1.18828
1.1882
1.18835
1.18833
1.1883
1.18826
1.18821
1.18815
1.18808
1.188
1.1879
1.18777
1.18764
1.1875
1.18825
1.1882
1.18814
1.18808
1.18802
1.18794
1.18786
1.18777
1.18766
1.18756
1.18746
1.18734
1.18817
1.1881
1.18803
1.18795
1.18788
1.1878
1.18772
1.18764
1.18755
1.18746
1.18737
1.18726
1.18811
1.18803
1.18795
1.18788
1.1878
1.18773
1.18765
1.18757
1.18749
1.18741
1.18733
1.18722
1.18737
1.1873
1.18726
1.18725
1.18725
1.18728
1.18733
1.18741
1.18753
1.18773
1.1879
1.1881
1.18723
1.18717
1.18715
1.18716
1.18719
1.18724
1.18732
1.18743
1.18757
1.18777
1.18793
1.18809
1.18714
1.18709
1.18709
1.18711
1.18715
1.18722
1.18731
1.18743
1.18758
1.18776
1.18793
1.18808
1.1871
1.18705
1.18705
1.18708
1.18713
1.1872
1.1873
1.18742
1.18757
1.18775
1.18792
1.18807
1.18814
1.18819
1.18823
1.18827
1.18829
1.18829
1.18827
1.18824
1.1882
1.18814
1.18808
1.18802
1.18816
1.18823
1.18829
1.18834
1.18837
1.18838
1.18838
1.18836
1.18832
1.18828
1.18824
1.1882
1.18817
1.18825
1.18832
1.18838
1.18842
1.18844
1.18844
1.18842
1.18839
1.18836
1.18833
1.18831
1.18818
1.18827
1.18834
1.1884
1.18844
1.18846
1.18846
1.18845
1.18842
1.18839
1.18837
1.18836
1.18797
1.18788
1.18781
1.18774
1.18769
1.18767
1.18768
1.18773
1.18782
1.18803
1.18817
1.18834
1.18818
1.18813
1.18809
1.18806
1.18804
1.18803
1.18804
1.18808
1.18815
1.18822
1.18826
1.18829
1.18833
1.1883
1.18828
1.18827
1.18826
1.18827
1.18828
1.18829
1.18831
1.18832
1.18829
1.18825
1.18845
1.18842
1.18841
1.18841
1.18841
1.18841
1.1884
1.18839
1.18837
1.18834
1.18828
1.1882
1.18835
1.18833
1.1883
1.18826
1.18821
1.18815
1.18808
1.188
1.1879
1.18777
1.18764
1.1875
1.18825
1.1882
1.18814
1.18808
1.18802
1.18794
1.18786
1.18777
1.18766
1.18756
1.18746
1.18734
1.18817
1.1881
1.18803
1.18795
1.18788
1.1878
1.18772
1.18764
1.18755
1.18746
1.18737
1.18726
1.18811
1.18803
1.18795
1.18788
1.1878
1.18773
1.18765
1.18757
1.18749
1.18741
1.18733
1.18722
1.18737
1.1873
1.18726
1.18725
1.18725
1.18728
1.18733
1.18741
1.18753
1.18773
1.1879
1.1881
1.18723
1.18717
1.18715
1.18716
1.18719
1.18724
1.18732
1.18743
1.18757
1.18777
1.18793
1.18809
1.18714
1.18709
1.18709
1.18711
1.18715
1.18722
1.18731
1.18743
1.18758
1.18776
1.18793
1.18808
1.1871
1.18705
1.18705
1.18708
1.18713
1.1872
1.1873
1.18742
1.18757
1.18775
1.18792
1.18807
1.18818
1.18828
1.18836
1.18842
1.18846
1.18848
1.18848
1.18846
1.18843
1.1884
1.18836
1.18833
1.18818
1.18829
1.18837
1.18843
1.18847
1.18849
1.18849
1.18847
1.18844
1.1884
1.18835
1.18834
1.18818
1.18829
1.18838
1.18844
1.18848
1.1885
1.18849
1.18847
1.18843
1.18839
1.18834
1.18833
1.18819
1.1883
1.18839
1.18845
1.18849
1.1885
1.18849
1.18846
1.18843
1.18838
1.18834
1.18832
1.18819
1.18831
1.18839
1.18846
1.18849
1.1885
1.18849
1.18846
1.18842
1.18837
1.18833
1.1883
1.18819
1.18831
1.1884
1.18846
1.18849
1.1885
1.18849
1.18845
1.18841
1.18836
1.18831
1.18828
1.1882
1.18832
1.18841
1.18847
1.1885
1.1885
1.18848
1.18845
1.1884
1.18835
1.1883
1.18825
1.1882
1.18832
1.18841
1.18847
1.1885
1.1885
1.18848
1.18844
1.18839
1.18833
1.18827
1.18821
1.1882
1.18833
1.18842
1.18848
1.18851
1.1885
1.18848
1.18844
1.18838
1.18832
1.18825
1.18815
1.18821
1.18834
1.18843
1.18849
1.18851
1.18851
1.18848
1.18843
1.18837
1.18831
1.18822
1.18808
1.18822
1.18835
1.18844
1.1885
1.18852
1.18851
1.18848
1.18843
1.18837
1.18829
1.18819
1.18798
1.18823
1.18836
1.18846
1.18851
1.18853
1.18851
1.18847
1.18842
1.18836
1.18828
1.18815
1.18781
1.18858
1.18852
1.18849
1.18849
1.18849
1.18848
1.18847
1.18844
1.18839
1.18833
1.18825
1.18816
1.1886
1.18857
1.18854
1.18854
1.18853
1.18852
1.18849
1.18844
1.18838
1.18831
1.18822
1.18812
1.18862
1.18859
1.18857
1.18856
1.18855
1.18852
1.18848
1.18843
1.18836
1.18827
1.18818
1.1881
1.18862
1.18859
1.18858
1.18856
1.18854
1.18851
1.18846
1.1884
1.18832
1.18824
1.18816
1.18808
1.18862
1.18859
1.18857
1.18855
1.18852
1.18848
1.18842
1.18836
1.18829
1.18821
1.18813
1.18807
1.18861
1.18858
1.18856
1.18853
1.18849
1.18845
1.18839
1.18832
1.18825
1.18818
1.18812
1.18806
1.1886
1.18856
1.18854
1.18851
1.18846
1.18841
1.18834
1.18828
1.18821
1.18815
1.1881
1.18805
1.18858
1.18854
1.18852
1.18848
1.18843
1.18837
1.1883
1.18824
1.18818
1.18813
1.18809
1.18805
1.18857
1.18852
1.1885
1.18845
1.18839
1.18833
1.18826
1.1882
1.18815
1.18811
1.18807
1.18805
1.18854
1.1885
1.18847
1.18842
1.18836
1.18829
1.18822
1.18817
1.18812
1.18809
1.18806
1.18805
1.18852
1.18848
1.18845
1.18839
1.18833
1.18826
1.18819
1.18814
1.1881
1.18807
1.18805
1.18805
1.18847
1.18843
1.1884
1.18834
1.18827
1.1882
1.18813
1.18808
1.18805
1.18803
1.18803
1.18804
1.18806
1.18798
1.1879
1.18783
1.18776
1.18769
1.18762
1.18755
1.18747
1.18738
1.1873
1.18716
1.18803
1.18795
1.18788
1.18781
1.18775
1.18768
1.18761
1.18754
1.18747
1.18739
1.18731
1.18715
1.18801
1.18794
1.18787
1.18781
1.18775
1.18769
1.18763
1.18756
1.18749
1.18741
1.18733
1.18717
1.188
1.18794
1.18788
1.18783
1.18777
1.18771
1.18766
1.18759
1.18752
1.18744
1.18737
1.1872
1.188
1.18795
1.1879
1.18785
1.1878
1.18775
1.18769
1.18763
1.18756
1.18747
1.18741
1.18724
1.18801
1.18796
1.18792
1.18788
1.18783
1.18778
1.18773
1.18767
1.1876
1.18751
1.18745
1.18728
1.18801
1.18798
1.18795
1.18791
1.18787
1.18782
1.18777
1.18771
1.18764
1.18755
1.18749
1.18732
1.18802
1.188
1.18797
1.18794
1.18791
1.18786
1.18781
1.18775
1.18768
1.18759
1.18753
1.18736
1.18803
1.18802
1.188
1.18797
1.18794
1.1879
1.18785
1.18779
1.18772
1.18763
1.18756
1.1874
1.18804
1.18803
1.18802
1.188
1.18798
1.18794
1.18789
1.18783
1.18776
1.18767
1.1876
1.18744
1.18805
1.18804
1.18804
1.18803
1.188
1.18797
1.18792
1.18786
1.18779
1.1877
1.18763
1.18747
1.18805
1.18806
1.18807
1.18806
1.18805
1.18802
1.18798
1.18793
1.18786
1.18777
1.18769
1.18752
1.18709
1.18703
1.18703
1.18706
1.18711
1.18719
1.18729
1.18741
1.18756
1.18774
1.18791
1.18806
1.18703
1.18701
1.18701
1.18704
1.1871
1.18718
1.18728
1.1874
1.18755
1.18773
1.1879
1.18806
1.18699
1.18699
1.18699
1.18703
1.18708
1.18716
1.18727
1.18739
1.18755
1.18772
1.18789
1.18805
1.18695
1.18696
1.18697
1.18701
1.18707
1.18715
1.18725
1.18738
1.18754
1.18771
1.18789
1.18805
1.18691
1.18692
1.18694
1.18699
1.18706
1.18714
1.18724
1.18737
1.18753
1.1877
1.18788
1.18805
1.18686
1.18688
1.18692
1.18697
1.18704
1.18713
1.18723
1.18736
1.18752
1.18769
1.18787
1.18805
1.18679
1.18684
1.18689
1.18695
1.18703
1.18712
1.18722
1.18735
1.18751
1.18768
1.18787
1.18804
1.18671
1.18679
1.18685
1.18693
1.18701
1.18711
1.18721
1.18734
1.18749
1.18768
1.18786
1.18804
1.1866
1.18673
1.18682
1.18691
1.187
1.18709
1.1872
1.18732
1.18748
1.18767
1.18786
1.18804
1.18646
1.18667
1.18678
1.18688
1.18698
1.18708
1.18718
1.18731
1.18747
1.18766
1.18786
1.18805
1.18628
1.1866
1.18675
1.18686
1.18697
1.18707
1.18717
1.18729
1.18746
1.18765
1.18785
1.18805
1.18602
1.18651
1.1867
1.18683
1.18696
1.18706
1.18715
1.18727
1.18743
1.18763
1.18785
1.18805
1.18818
1.18828
1.18836
1.18842
1.18846
1.18848
1.18848
1.18846
1.18843
1.1884
1.18836
1.18833
1.18818
1.18829
1.18837
1.18843
1.18847
1.18849
1.18849
1.18847
1.18844
1.1884
1.18835
1.18834
1.18818
1.18829
1.18838
1.18844
1.18848
1.1885
1.18849
1.18847
1.18843
1.18839
1.18834
1.18833
1.18819
1.1883
1.18839
1.18845
1.18849
1.1885
1.18849
1.18846
1.18843
1.18838
1.18834
1.18832
1.18819
1.18831
1.18839
1.18846
1.18849
1.1885
1.18849
1.18846
1.18842
1.18837
1.18833
1.1883
1.18819
1.18831
1.1884
1.18846
1.18849
1.1885
1.18849
1.18845
1.18841
1.18836
1.18831
1.18828
1.1882
1.18832
1.18841
1.18847
1.1885
1.1885
1.18848
1.18845
1.1884
1.18835
1.18829
1.18825
1.1882
1.18832
1.18841
1.18847
1.1885
1.1885
1.18848
1.18844
1.18839
1.18833
1.18827
1.18821
1.1882
1.18833
1.18842
1.18848
1.18851
1.1885
1.18848
1.18844
1.18838
1.18832
1.18825
1.18815
1.18821
1.18834
1.18843
1.18849
1.18851
1.18851
1.18848
1.18843
1.18837
1.18831
1.18822
1.18808
1.18822
1.18835
1.18844
1.1885
1.18852
1.18851
1.18848
1.18843
1.18837
1.18829
1.18819
1.18798
1.18823
1.18836
1.18846
1.18851
1.18853
1.18851
1.18847
1.18842
1.18836
1.18828
1.18815
1.18781
1.18858
1.18852
1.18849
1.18849
1.18849
1.18848
1.18847
1.18844
1.18839
1.18833
1.18825
1.18816
1.1886
1.18857
1.18854
1.18854
1.18853
1.18852
1.18849
1.18844
1.18838
1.18831
1.18822
1.18812
1.18862
1.18859
1.18857
1.18856
1.18855
1.18852
1.18848
1.18843
1.18836
1.18827
1.18818
1.1881
1.18862
1.18859
1.18858
1.18856
1.18854
1.18851
1.18846
1.1884
1.18832
1.18824
1.18816
1.18808
1.18862
1.18859
1.18857
1.18855
1.18852
1.18848
1.18842
1.18836
1.18829
1.18821
1.18813
1.18806
1.18861
1.18858
1.18856
1.18853
1.18849
1.18845
1.18839
1.18832
1.18825
1.18818
1.18811
1.18806
1.1886
1.18856
1.18854
1.18851
1.18846
1.18841
1.18834
1.18828
1.18821
1.18815
1.1881
1.18805
1.18858
1.18854
1.18852
1.18848
1.18843
1.18837
1.1883
1.18824
1.18818
1.18813
1.18809
1.18805
1.18857
1.18852
1.1885
1.18845
1.18839
1.18833
1.18826
1.1882
1.18815
1.18811
1.18807
1.18805
1.18854
1.1885
1.18847
1.18842
1.18836
1.18829
1.18822
1.18817
1.18812
1.18809
1.18806
1.18805
1.18852
1.18848
1.18845
1.18839
1.18832
1.18826
1.18819
1.18814
1.18809
1.18807
1.18805
1.18805
1.18847
1.18843
1.1884
1.18834
1.18827
1.1882
1.18813
1.18808
1.18805
1.18803
1.18803
1.18804
1.18806
1.18798
1.1879
1.18783
1.18776
1.18769
1.18762
1.18755
1.18747
1.18738
1.1873
1.18717
1.18803
1.18795
1.18788
1.18781
1.18775
1.18768
1.18761
1.18754
1.18747
1.18739
1.18731
1.18715
1.18801
1.18794
1.18787
1.18781
1.18775
1.18769
1.18763
1.18756
1.18749
1.18741
1.18733
1.18717
1.188
1.18794
1.18788
1.18783
1.18777
1.18771
1.18766
1.18759
1.18752
1.18744
1.18737
1.1872
1.188
1.18795
1.1879
1.18785
1.1878
1.18775
1.18769
1.18763
1.18756
1.18747
1.18741
1.18724
1.18801
1.18796
1.18792
1.18788
1.18783
1.18778
1.18773
1.18767
1.1876
1.18751
1.18745
1.18728
1.18801
1.18798
1.18794
1.18791
1.18787
1.18782
1.18777
1.18771
1.18764
1.18755
1.18749
1.18732
1.18802
1.188
1.18797
1.18794
1.18791
1.18786
1.18781
1.18775
1.18768
1.18759
1.18753
1.18736
1.18803
1.18802
1.188
1.18797
1.18794
1.1879
1.18785
1.18779
1.18772
1.18763
1.18756
1.1874
1.18804
1.18803
1.18802
1.188
1.18798
1.18794
1.18789
1.18783
1.18776
1.18767
1.1876
1.18744
1.18805
1.18804
1.18804
1.18803
1.188
1.18797
1.18792
1.18786
1.18779
1.1877
1.18763
1.18747
1.18805
1.18806
1.18807
1.18806
1.18805
1.18802
1.18798
1.18793
1.18786
1.18777
1.18769
1.18752
1.18709
1.18703
1.18703
1.18706
1.18711
1.18719
1.18729
1.18741
1.18756
1.18774
1.18791
1.18806
1.18703
1.18701
1.18701
1.18704
1.1871
1.18718
1.18728
1.1874
1.18755
1.18773
1.1879
1.18806
1.18699
1.18699
1.18699
1.18703
1.18709
1.18716
1.18727
1.18739
1.18755
1.18772
1.18789
1.18805
1.18695
1.18696
1.18697
1.18701
1.18707
1.18715
1.18726
1.18738
1.18754
1.18771
1.18789
1.18805
1.18691
1.18692
1.18694
1.18699
1.18706
1.18714
1.18724
1.18737
1.18753
1.1877
1.18788
1.18805
1.18686
1.18688
1.18692
1.18697
1.18704
1.18713
1.18723
1.18736
1.18752
1.18769
1.18787
1.18805
1.1868
1.18684
1.18689
1.18695
1.18703
1.18712
1.18722
1.18735
1.18751
1.18768
1.18787
1.18804
1.18671
1.18679
1.18686
1.18693
1.18701
1.18711
1.18721
1.18734
1.18749
1.18768
1.18787
1.18804
1.1866
1.18673
1.18682
1.18691
1.187
1.18709
1.1872
1.18732
1.18748
1.18767
1.18786
1.18804
1.18646
1.18667
1.18679
1.18688
1.18698
1.18708
1.18718
1.18731
1.18747
1.18766
1.18786
1.18805
1.18628
1.1866
1.18675
1.18686
1.18697
1.18707
1.18717
1.18729
1.18746
1.18765
1.18785
1.18805
1.18602
1.18652
1.1867
1.18683
1.18696
1.18706
1.18715
1.18727
1.18743
1.18763
1.18785
1.18805
)
;

boundaryField
{
    rotor
    {
        type            calculated;
        value           nonuniform List<scalar> 
192
(
1.16825
1.16804
1.16793
1.16786
1.16788
1.16807
1.16877
1.17
1.16962
1.16957
1.16971
1.16965
1.1698
1.16998
1.17032
1.17081
1.17139
1.17195
1.17257
1.17304
1.17335
1.17329
1.17306
1.17242
1.16816
1.16798
1.16788
1.16781
1.16784
1.16796
1.16845
1.16984
1.16944
1.16939
1.16954
1.16951
1.16962
1.16979
1.17008
1.17052
1.17105
1.17155
1.17213
1.17254
1.17281
1.17273
1.17249
1.17186
1.16825
1.16804
1.16793
1.16786
1.16788
1.16807
1.16877
1.17
1.16962
1.16957
1.16971
1.16965
1.1698
1.16998
1.17031
1.17081
1.17139
1.17195
1.17257
1.17304
1.17335
1.17329
1.17306
1.17242
1.16816
1.16798
1.16788
1.16781
1.16784
1.16796
1.16845
1.16984
1.16944
1.16939
1.16954
1.16951
1.16962
1.16979
1.17008
1.17052
1.17105
1.17155
1.17213
1.17254
1.17281
1.17273
1.17249
1.17186
1.16825
1.16985
1.17099
1.1728
1.17447
1.17629
1.17808
1.17982
1.18172
1.18346
1.18487
1.18492
1.17186
1.17303
1.17345
1.17433
1.17579
1.17772
1.18011
1.18287
1.18601
1.1891
1.19192
1.19406
1.16816
1.16977
1.17088
1.17265
1.17428
1.17611
1.17789
1.17965
1.18156
1.18328
1.18469
1.18478
1.17242
1.17354
1.17388
1.17474
1.1762
1.17815
1.18058
1.1834
1.18661
1.18973
1.19254
1.19456
1.16825
1.16985
1.17099
1.1728
1.17447
1.17629
1.17808
1.17982
1.18172
1.18346
1.18487
1.18492
1.17186
1.17303
1.17345
1.17433
1.17579
1.17772
1.18011
1.18287
1.18601
1.1891
1.19192
1.19406
1.16816
1.16977
1.17088
1.17265
1.17428
1.17611
1.17789
1.17965
1.18156
1.18328
1.18469
1.18478
1.17242
1.17354
1.17388
1.17474
1.1762
1.17815
1.18058
1.1834
1.18661
1.18973
1.19254
1.19456
)
;
    }
    stator
    {
        type            calculated;
        value           nonuniform List<scalar> 
192
(
1.18823
1.18836
1.18846
1.18851
1.18853
1.18851
1.18847
1.18842
1.18836
1.18828
1.18815
1.18781
1.18847
1.18843
1.1884
1.18834
1.18827
1.1882
1.18813
1.18808
1.18805
1.18803
1.18803
1.18804
1.18805
1.18806
1.18807
1.18806
1.18805
1.18802
1.18798
1.18793
1.18786
1.18777
1.18769
1.18752
1.18602
1.18651
1.1867
1.18683
1.18696
1.18706
1.18715
1.18727
1.18743
1.18763
1.18785
1.18805
1.18823
1.18836
1.18846
1.18851
1.18853
1.18851
1.18847
1.18842
1.18836
1.18828
1.18815
1.18781
1.18847
1.18843
1.1884
1.18834
1.18827
1.1882
1.18813
1.18808
1.18805
1.18803
1.18803
1.18804
1.18805
1.18806
1.18807
1.18806
1.18805
1.18802
1.18798
1.18793
1.18786
1.18777
1.18769
1.18752
1.18602
1.18652
1.1867
1.18683
1.18696
1.18706
1.18715
1.18727
1.18743
1.18763
1.18785
1.18805
1.18858
1.1886
1.18862
1.18862
1.18862
1.18861
1.1886
1.18858
1.18857
1.18854
1.18852
1.18847
1.18833
1.18834
1.18833
1.18832
1.1883
1.18828
1.18825
1.18821
1.18815
1.18808
1.18798
1.18781
1.18709
1.18703
1.18699
1.18695
1.18691
1.18686
1.18679
1.18671
1.1866
1.18646
1.18628
1.18602
1.18716
1.18715
1.18717
1.1872
1.18724
1.18728
1.18732
1.18736
1.1874
1.18744
1.18747
1.18752
1.18858
1.1886
1.18862
1.18862
1.18862
1.18861
1.1886
1.18858
1.18857
1.18854
1.18852
1.18847
1.18833
1.18834
1.18833
1.18832
1.1883
1.18828
1.18825
1.18821
1.18815
1.18808
1.18798
1.18781
1.18709
1.18703
1.18699
1.18695
1.18691
1.18686
1.1868
1.18671
1.1866
1.18646
1.18628
1.18602
1.18717
1.18715
1.18717
1.1872
1.18724
1.18728
1.18732
1.18736
1.1874
1.18744
1.18747
1.18752
)
;
    }
    front
    {
        type            empty;
    }
    back
    {
        type            empty;
    }
}


// ************************************************************************* //
