/*--------------------------------*- C++ -*----------------------------------*\
| =========                 |                                                 |
| \\      /  F ield         | OpenFOAM: The Open Source CFD Toolbox           |
|  \\    /   O peration     | Version:  2212                                  |
|   \\  /    A nd           | Website:  www.openfoam.com                      |
|    \\/     M anipulation  |                                                 |
\*---------------------------------------------------------------------------*/
FoamFile
{
    version     2.0;
    format      ascii;
    arch        "LSB;label=32;scalar=64";
    class       volScalarField;
    location    "0.09";
    object      tracer0;
}
// * * * * * * * * * * * * * * * * * * * * * * * * * * * * * * * * * * * * * //

dimensions      [0 0 0 0 0 0 0];

internalField   nonuniform List<scalar> 
3072
(
3.02957e-05
3.02847e-05
3.02541e-05
3.01949e-05
3.01352e-05
3.00941e-05
3.01986e-05
3.13531e-05
3.23394e-05
3.24183e-05
3.24359e-05
3.24495e-05
3.05169e-05
3.0479e-05
3.03528e-05
3.0203e-05
3.02859e-05
3.0821e-05
3.17117e-05
3.20989e-05
3.22357e-05
3.21174e-05
3.18675e-05
3.15892e-05
3.06124e-05
3.05566e-05
3.0348e-05
3.04849e-05
3.11451e-05
3.17141e-05
3.19063e-05
3.19577e-05
3.17013e-05
3.09702e-05
2.99654e-05
2.8746e-05
3.0711e-05
3.07608e-05
3.07557e-05
3.1169e-05
3.15773e-05
3.17102e-05
3.17331e-05
3.128e-05
2.99503e-05
2.78237e-05
2.59328e-05
2.44017e-05
3.07685e-05
3.10285e-05
3.11473e-05
3.1449e-05
3.15652e-05
3.15852e-05
3.11842e-05
2.97061e-05
2.73418e-05
2.49945e-05
2.30818e-05
2.15356e-05
3.07982e-05
3.11349e-05
3.12911e-05
3.14462e-05
3.14911e-05
3.12746e-05
3.01542e-05
2.78745e-05
2.51997e-05
2.29162e-05
2.11337e-05
1.97969e-05
3.08035e-05
3.11545e-05
3.13184e-05
3.13968e-05
3.13138e-05
3.0691e-05
2.90424e-05
2.67624e-05
2.43991e-05
2.24215e-05
2.08514e-05
1.96477e-05
3.08598e-05
3.11826e-05
3.12748e-05
3.13131e-05
3.10921e-05
3.03432e-05
2.89463e-05
2.68785e-05
2.4673e-05
2.27943e-05
2.12882e-05
2.01174e-05
3.29676e-05
3.29555e-05
3.12885e-05
3.11414e-05
3.09491e-05
3.03849e-05
2.92025e-05
2.7494e-05
2.56159e-05
2.39334e-05
2.2565e-05
2.14574e-05
3.63891e-05
3.50718e-05
3.31103e-05
3.12284e-05
3.09966e-05
3.06156e-05
2.98281e-05
2.88068e-05
2.7668e-05
2.6402e-05
2.54209e-05
2.44251e-05
3.83445e-05
3.96388e-05
3.88502e-05
3.41e-05
3.23879e-05
3.16786e-05
3.11661e-05
3.05156e-05
2.98287e-05
2.90432e-05
2.83451e-05
2.77811e-05
4.21695e-05
4.29169e-05
4.46446e-05
4.36223e-05
4.15068e-05
3.96342e-05
3.81963e-05
3.70588e-05
3.61709e-05
3.54575e-05
3.48617e-05
3.44031e-05
3.24653e-05
3.24823e-05
3.25012e-05
3.25302e-05
3.25681e-05
3.26193e-05
3.26862e-05
3.27545e-05
3.28165e-05
3.2853e-05
3.2871e-05
3.2866e-05
3.12904e-05
3.10705e-05
3.0952e-05
3.09697e-05
3.1115e-05
3.13764e-05
3.17411e-05
3.2165e-05
3.25609e-05
3.28049e-05
3.29288e-05
3.29781e-05
2.78025e-05
2.71092e-05
2.67792e-05
2.6766e-05
2.70694e-05
2.77238e-05
2.86832e-05
2.99616e-05
3.13471e-05
3.23554e-05
3.28361e-05
3.30172e-05
2.32e-05
2.24164e-05
2.20068e-05
2.19837e-05
2.23217e-05
2.31243e-05
2.44561e-05
2.63894e-05
2.89535e-05
3.14225e-05
3.26098e-05
3.3047e-05
2.04574e-05
1.98029e-05
1.95366e-05
1.95206e-05
1.9951e-05
2.07259e-05
2.19982e-05
2.38368e-05
2.65479e-05
3.01034e-05
3.23198e-05
3.30805e-05
1.89538e-05
1.84887e-05
1.83183e-05
1.83244e-05
1.87741e-05
1.95716e-05
2.08478e-05
2.26566e-05
2.53991e-05
2.92217e-05
3.21196e-05
3.31136e-05
1.88335e-05
1.82996e-05
1.79305e-05
1.79925e-05
1.83847e-05
1.91766e-05
2.04467e-05
2.22276e-05
2.49473e-05
2.88357e-05
3.19882e-05
3.31479e-05
1.93098e-05
1.87834e-05
1.85249e-05
1.86543e-05
1.89888e-05
1.96288e-05
2.08032e-05
2.2434e-05
2.4976e-05
2.88035e-05
3.19765e-05
3.31826e-05
2.073e-05
2.01721e-05
2.0108e-05
2.034e-05
2.07787e-05
2.15287e-05
2.27691e-05
2.44301e-05
2.70664e-05
3.02906e-05
3.25283e-05
3.32546e-05
2.38928e-05
2.33631e-05
2.33808e-05
2.36784e-05
2.41479e-05
2.48805e-05
2.59329e-05
2.74595e-05
2.97039e-05
3.17441e-05
3.2939e-05
3.33315e-05
2.73457e-05
2.72228e-05
2.74597e-05
2.79382e-05
2.85931e-05
2.94594e-05
3.05697e-05
3.18753e-05
3.27654e-05
3.32428e-05
3.34282e-05
3.34034e-05
3.40871e-05
3.38848e-05
3.38849e-05
3.39391e-05
3.39975e-05
3.40281e-05
3.39932e-05
3.39009e-05
3.3818e-05
3.36676e-05
3.35455e-05
3.34216e-05
2.34055e-05
2.33989e-05
2.33854e-05
2.33522e-05
2.33183e-05
2.32902e-05
2.33342e-05
2.38497e-05
2.47928e-05
2.48821e-05
2.48966e-05
2.4908e-05
2.35425e-05
2.35281e-05
2.34633e-05
2.33643e-05
2.33737e-05
2.36415e-05
2.42913e-05
2.45867e-05
2.47112e-05
2.46145e-05
2.43482e-05
2.40565e-05
2.36024e-05
2.35856e-05
2.34598e-05
2.34969e-05
2.38586e-05
2.42856e-05
2.44258e-05
2.44626e-05
2.4223e-05
2.35011e-05
2.23987e-05
2.16657e-05
2.36596e-05
2.37018e-05
2.36881e-05
2.38903e-05
2.41811e-05
2.42735e-05
2.4281e-05
2.38814e-05
2.27026e-05
2.12094e-05
2.02791e-05
1.93987e-05
2.36912e-05
2.38506e-05
2.39171e-05
2.4092e-05
2.41633e-05
2.4166e-05
2.38191e-05
2.26502e-05
2.11142e-05
1.98044e-05
1.88962e-05
1.80113e-05
2.37085e-05
2.39146e-05
2.40066e-05
2.40817e-05
2.40988e-05
2.39078e-05
2.30546e-05
2.15126e-05
1.99698e-05
1.87995e-05
1.79187e-05
1.71571e-05
2.37151e-05
2.39179e-05
2.40023e-05
2.40386e-05
2.39525e-05
2.3477e-05
2.23192e-05
2.08596e-05
1.9573e-05
1.8587e-05
1.7813e-05
1.71406e-05
2.37204e-05
2.39089e-05
2.39674e-05
2.39523e-05
2.3767e-05
2.31921e-05
2.22215e-05
2.09258e-05
1.97198e-05
1.87766e-05
1.80413e-05
1.73987e-05
2.37138e-05
2.3874e-05
2.3899e-05
2.38573e-05
2.36468e-05
2.32136e-05
2.23846e-05
2.12919e-05
2.02354e-05
1.9361e-05
1.8691e-05
1.81124e-05
2.37059e-05
2.38235e-05
2.38299e-05
2.37767e-05
2.36511e-05
2.33794e-05
2.28828e-05
2.22074e-05
2.1462e-05
2.07269e-05
2.01391e-05
1.96324e-05
2.36625e-05
2.37253e-05
2.37348e-05
2.37269e-05
2.36932e-05
2.35792e-05
2.34089e-05
2.30958e-05
2.28038e-05
2.23978e-05
2.20974e-05
2.17484e-05
2.39408e-05
2.40304e-05
2.41284e-05
2.41831e-05
2.42092e-05
2.41878e-05
2.41804e-05
2.40823e-05
2.39745e-05
2.38219e-05
2.36784e-05
2.35609e-05
2.49201e-05
2.49339e-05
2.49501e-05
2.49736e-05
2.50107e-05
2.5064e-05
2.51415e-05
2.52325e-05
2.53308e-05
2.54104e-05
2.54499e-05
2.54623e-05
2.37104e-05
2.34496e-05
2.32882e-05
2.3278e-05
2.33708e-05
2.35709e-05
2.38718e-05
2.42821e-05
2.47474e-05
2.52162e-05
2.54625e-05
2.55516e-05
2.0884e-05
2.05749e-05
2.02834e-05
2.02659e-05
2.03697e-05
2.07196e-05
2.12345e-05
2.20376e-05
2.30374e-05
2.4275e-05
2.52315e-05
2.55832e-05
1.87765e-05
1.83987e-05
1.8164e-05
1.81397e-05
1.82521e-05
1.8633e-05
1.9201e-05
2.00847e-05
2.12924e-05
2.2827e-05
2.47654e-05
2.56174e-05
1.75011e-05
1.71183e-05
1.69699e-05
1.69488e-05
1.71115e-05
1.74843e-05
1.80904e-05
1.90009e-05
2.03339e-05
2.18851e-05
2.41174e-05
2.5657e-05
1.67631e-05
1.64824e-05
1.63808e-05
1.63703e-05
1.65517e-05
1.69169e-05
1.75191e-05
1.83656e-05
1.97637e-05
2.13786e-05
2.3659e-05
2.57045e-05
1.67421e-05
1.64472e-05
1.62433e-05
1.62249e-05
1.63748e-05
1.67285e-05
1.73277e-05
1.81476e-05
1.95504e-05
2.1164e-05
2.34245e-05
2.57499e-05
1.69852e-05
1.67087e-05
1.65283e-05
1.65728e-05
1.67074e-05
1.69876e-05
1.75206e-05
1.82371e-05
1.95771e-05
2.11442e-05
2.3359e-05
2.57978e-05
1.7703e-05
1.74312e-05
1.73198e-05
1.74122e-05
1.75938e-05
1.79226e-05
1.84763e-05
1.9248e-05
2.05613e-05
2.18279e-05
2.371e-05
2.59027e-05
1.92975e-05
1.90195e-05
1.89697e-05
1.90875e-05
1.93015e-05
1.96297e-05
2.01042e-05
2.07743e-05
2.17432e-05
2.26745e-05
2.43348e-05
2.61288e-05
2.15641e-05
2.13597e-05
2.1359e-05
2.14731e-05
2.16896e-05
2.19844e-05
2.2387e-05
2.29113e-05
2.36027e-05
2.44506e-05
2.56727e-05
2.64955e-05
2.34737e-05
2.35076e-05
2.36621e-05
2.3932e-05
2.42583e-05
2.46588e-05
2.51195e-05
2.56111e-05
2.6209e-05
2.65774e-05
2.69152e-05
2.68685e-05
2.01481e-05
2.01475e-05
2.01415e-05
2.01318e-05
2.01146e-05
2.01157e-05
2.01614e-05
2.06109e-05
2.09937e-05
2.10279e-05
2.10376e-05
2.1047e-05
2.02102e-05
2.02199e-05
2.02052e-05
2.0166e-05
2.02042e-05
2.04499e-05
2.06916e-05
2.08119e-05
2.08551e-05
2.06523e-05
2.03593e-05
2.00018e-05
2.02385e-05
2.02714e-05
2.02361e-05
2.02932e-05
2.0504e-05
2.06114e-05
2.06477e-05
2.05748e-05
2.01309e-05
1.91819e-05
1.80736e-05
1.72155e-05
2.02554e-05
2.03403e-05
2.03692e-05
2.04623e-05
2.05225e-05
2.05399e-05
2.03563e-05
1.97041e-05
1.81702e-05
1.67005e-05
1.56782e-05
1.47353e-05
2.02635e-05
2.03689e-05
2.04194e-05
2.04547e-05
2.04635e-05
2.02861e-05
1.9566e-05
1.81295e-05
1.64432e-05
1.5121e-05
1.40543e-05
1.31344e-05
2.0268e-05
2.03667e-05
2.04051e-05
2.04134e-05
2.03115e-05
1.97955e-05
1.86268e-05
1.68397e-05
1.5198e-05
1.39565e-05
1.29211e-05
1.21397e-05
2.02652e-05
2.03481e-05
2.0368e-05
2.03167e-05
2.00298e-05
1.92011e-05
1.77704e-05
1.6146e-05
1.47558e-05
1.36795e-05
1.27635e-05
1.20578e-05
2.02474e-05
2.02992e-05
2.02982e-05
2.01741e-05
1.97462e-05
1.89218e-05
1.77294e-05
1.62345e-05
1.49188e-05
1.38893e-05
1.30198e-05
1.23324e-05
2.02292e-05
2.02626e-05
2.02254e-05
2.0032e-05
1.96743e-05
1.89828e-05
1.79479e-05
1.66708e-05
1.5491e-05
1.454e-05
1.376e-05
1.31132e-05
2.01982e-05
2.01952e-05
2.0128e-05
1.99997e-05
1.97342e-05
1.92562e-05
1.85805e-05
1.77311e-05
1.68427e-05
1.59965e-05
1.53611e-05
1.47727e-05
2.01665e-05
2.01584e-05
2.01291e-05
2.00459e-05
1.99231e-05
1.96766e-05
1.93974e-05
1.89876e-05
1.85751e-05
1.80907e-05
1.77006e-05
1.73281e-05
2.03993e-05
2.044e-05
2.04878e-05
2.04927e-05
2.04936e-05
2.04254e-05
2.03306e-05
2.01515e-05
1.99605e-05
1.97331e-05
1.9533e-05
1.93702e-05
2.10573e-05
2.107e-05
2.10854e-05
2.1109e-05
2.11509e-05
2.1209e-05
2.12957e-05
2.13933e-05
2.1504e-05
2.15914e-05
2.1637e-05
2.16542e-05
1.96295e-05
1.93389e-05
1.91984e-05
1.91914e-05
1.93084e-05
1.95308e-05
1.98702e-05
2.03138e-05
2.08285e-05
2.13439e-05
2.16224e-05
2.17239e-05
1.64895e-05
1.61342e-05
1.5871e-05
1.58733e-05
1.60188e-05
1.64186e-05
1.7007e-05
1.78767e-05
1.8968e-05
2.0275e-05
2.13472e-05
2.17484e-05
1.41156e-05
1.36833e-05
1.34712e-05
1.34621e-05
1.36568e-05
1.40937e-05
1.47958e-05
1.57839e-05
1.71303e-05
1.87456e-05
2.08144e-05
2.17811e-05
1.25666e-05
1.21501e-05
1.20043e-05
1.19944e-05
1.22475e-05
1.27045e-05
1.34535e-05
1.45424e-05
1.60803e-05
1.78075e-05
2.00695e-05
2.18188e-05
1.16717e-05
1.13799e-05
1.12794e-05
1.12828e-05
1.15499e-05
1.20223e-05
1.27782e-05
1.38064e-05
1.54312e-05
1.72757e-05
1.96077e-05
2.18675e-05
1.15977e-05
1.12725e-05
1.10492e-05
1.10855e-05
1.13183e-05
1.17872e-05
1.25453e-05
1.35533e-05
1.51897e-05
1.70566e-05
1.93642e-05
2.19105e-05
1.18728e-05
1.1561e-05
1.14057e-05
1.14812e-05
1.16769e-05
1.20512e-05
1.27539e-05
1.36607e-05
1.52317e-05
1.70412e-05
1.93041e-05
2.19588e-05
1.26929e-05
1.23691e-05
1.23309e-05
1.2465e-05
1.27203e-05
1.31581e-05
1.38951e-05
1.48379e-05
1.63568e-05
1.78244e-05
1.9692e-05
2.20805e-05
1.4441e-05
1.4159e-05
1.41898e-05
1.43805e-05
1.46705e-05
1.51056e-05
1.57392e-05
1.65294e-05
1.76841e-05
1.87038e-05
2.03326e-05
2.23282e-05
1.70936e-05
1.69293e-05
1.69756e-05
1.71562e-05
1.74229e-05
1.77864e-05
1.82659e-05
1.88714e-05
1.97215e-05
2.05109e-05
2.17518e-05
2.27606e-05
1.92825e-05
1.93283e-05
1.94796e-05
1.97508e-05
2.00845e-05
2.05054e-05
2.10119e-05
2.15779e-05
2.2274e-05
2.2781e-05
2.33651e-05
2.32861e-05
3.16646e-05
3.16544e-05
3.16297e-05
3.15709e-05
3.15146e-05
3.14622e-05
3.15312e-05
3.23661e-05
3.38921e-05
3.4031e-05
3.40521e-05
3.4069e-05
3.18924e-05
3.18646e-05
3.1752e-05
3.15838e-05
3.15957e-05
3.202e-05
3.30853e-05
3.35669e-05
3.3768e-05
3.36204e-05
3.32093e-05
3.27616e-05
3.19905e-05
3.19539e-05
3.17373e-05
3.17959e-05
3.23841e-05
3.3089e-05
3.33196e-05
3.33803e-05
3.302e-05
3.19069e-05
3.02134e-05
2.87845e-05
3.20832e-05
3.2136e-05
3.21089e-05
3.24378e-05
3.29219e-05
3.30771e-05
3.30949e-05
3.24736e-05
3.06242e-05
2.79848e-05
2.60406e-05
2.43921e-05
3.21391e-05
3.23854e-05
3.24869e-05
3.27799e-05
3.29019e-05
3.29143e-05
3.23795e-05
3.04742e-05
2.77259e-05
2.51714e-05
2.32759e-05
2.15836e-05
3.2168e-05
3.24937e-05
3.26394e-05
3.2771e-05
3.28067e-05
3.25165e-05
3.11023e-05
2.84236e-05
2.54907e-05
2.31186e-05
2.13129e-05
1.98284e-05
3.21808e-05
3.25061e-05
3.26443e-05
3.2709e-05
3.25829e-05
3.1787e-05
2.98056e-05
2.71865e-05
2.46798e-05
2.26633e-05
2.10796e-05
1.97608e-05
3.21919e-05
3.24969e-05
3.25949e-05
3.25854e-05
3.22683e-05
3.13041e-05
2.96295e-05
2.73029e-05
2.49635e-05
2.30441e-05
2.15337e-05
2.0269e-05
3.21878e-05
3.24489e-05
3.24876e-05
3.24149e-05
3.20778e-05
3.13433e-05
2.9915e-05
2.79718e-05
2.59595e-05
2.42153e-05
2.28379e-05
2.16854e-05
3.21746e-05
3.23664e-05
3.23907e-05
3.23178e-05
3.21035e-05
3.16475e-05
3.07881e-05
2.95937e-05
2.82393e-05
2.68348e-05
2.56903e-05
2.46646e-05
3.21248e-05
3.22493e-05
3.22328e-05
3.21854e-05
3.20992e-05
3.19542e-05
3.17393e-05
3.13294e-05
3.0895e-05
3.02644e-05
2.97151e-05
2.91205e-05
3.17275e-05
3.16797e-05
3.15565e-05
3.14754e-05
3.14396e-05
3.14091e-05
3.13556e-05
3.12389e-05
3.10909e-05
3.0945e-05
3.07997e-05
3.06556e-05
3.40865e-05
3.41068e-05
3.41307e-05
3.41653e-05
3.42217e-05
3.43018e-05
3.44165e-05
3.45465e-05
3.46775e-05
3.47715e-05
3.48176e-05
3.48305e-05
3.22319e-05
3.18364e-05
3.15715e-05
3.15604e-05
3.17205e-05
3.20647e-05
3.25661e-05
3.32353e-05
3.39463e-05
3.4554e-05
3.48435e-05
3.49502e-05
2.7458e-05
2.67471e-05
2.62534e-05
2.62304e-05
2.64398e-05
2.71198e-05
2.80978e-05
2.95928e-05
3.138e-05
3.34631e-05
3.45735e-05
3.49925e-05
2.31076e-05
2.23339e-05
2.1863e-05
2.18139e-05
2.20466e-05
2.28209e-05
2.39678e-05
2.57282e-05
2.80578e-05
3.12352e-05
3.4019e-05
3.50356e-05
2.04721e-05
1.97424e-05
1.94222e-05
1.93796e-05
1.9719e-05
2.04992e-05
2.17875e-05
2.36463e-05
2.59711e-05
2.92462e-05
3.32771e-05
3.50855e-05
1.89628e-05
1.84153e-05
1.82043e-05
1.81817e-05
1.85502e-05
1.92913e-05
2.05025e-05
2.25008e-05
2.49363e-05
2.82545e-05
3.26399e-05
3.51429e-05
1.89135e-05
1.83264e-05
1.79165e-05
1.78814e-05
1.81864e-05
1.8906e-05
2.00665e-05
2.20741e-05
2.4529e-05
2.78247e-05
3.22976e-05
3.52021e-05
1.94089e-05
1.88487e-05
1.84868e-05
1.85771e-05
1.8851e-05
1.94209e-05
2.04116e-05
2.23161e-05
2.45452e-05
2.77807e-05
3.21918e-05
3.52618e-05
2.08576e-05
2.03017e-05
2.00787e-05
2.02669e-05
2.06402e-05
2.13217e-05
2.24227e-05
2.44273e-05
2.6357e-05
2.91545e-05
3.25382e-05
3.53295e-05
2.40122e-05
2.34513e-05
2.33701e-05
2.36512e-05
2.41209e-05
2.48515e-05
2.5851e-05
2.7408e-05
2.80422e-05
3.00154e-05
3.12906e-05
3.40781e-05
2.87155e-05
2.83581e-05
2.8238e-05
2.83252e-05
2.84942e-05
2.86749e-05
2.88007e-05
2.88514e-05
2.87637e-05
2.96253e-05
3.07396e-05
3.3514e-05
3.04858e-05
3.03518e-05
3.02051e-05
3.00409e-05
2.98338e-05
2.96099e-05
2.93376e-05
2.90534e-05
2.85621e-05
2.90803e-05
2.9753e-05
3.24471e-05
3.06718e-05
3.20136e-05
3.46311e-05
3.52718e-05
3.57999e-05
3.62791e-05
3.65386e-05
3.64995e-05
3.63676e-05
3.62184e-05
3.6066e-05
3.59208e-05
2.65386e-05
2.70156e-05
2.88904e-05
2.90995e-05
2.94593e-05
2.96595e-05
3.00432e-05
3.03656e-05
3.07692e-05
3.09923e-05
3.12152e-05
3.12123e-05
2.17439e-05
2.33269e-05
2.36303e-05
2.3872e-05
2.41256e-05
2.43392e-05
2.45604e-05
2.47459e-05
2.49231e-05
2.50469e-05
2.513e-05
2.50964e-05
1.82015e-05
1.83931e-05
1.8568e-05
1.87648e-05
1.89378e-05
1.9138e-05
1.93069e-05
1.9493e-05
1.96197e-05
1.97288e-05
1.96976e-05
1.95543e-05
3.57774e-05
3.56102e-05
3.54006e-05
3.51423e-05
3.48339e-05
3.44774e-05
3.40817e-05
3.3651e-05
3.32023e-05
3.27811e-05
3.24536e-05
3.27201e-05
3.11004e-05
3.08945e-05
3.05946e-05
3.02058e-05
2.97393e-05
2.92156e-05
2.86748e-05
2.81317e-05
2.76419e-05
2.73279e-05
2.70513e-05
2.78057e-05
2.49746e-05
2.47585e-05
2.4453e-05
2.40725e-05
2.36408e-05
2.31869e-05
2.27333e-05
2.2307e-05
2.19832e-05
2.18484e-05
2.1672e-05
2.2124e-05
1.92772e-05
1.88975e-05
1.84749e-05
1.80647e-05
1.77293e-05
1.74453e-05
1.7233e-05
1.71129e-05
1.70474e-05
1.70848e-05
1.70472e-05
1.73079e-05
3.24244e-05
3.15842e-05
3.12255e-05
3.08855e-05
3.05008e-05
3.00713e-05
2.96295e-05
2.92244e-05
2.88522e-05
2.85415e-05
2.82863e-05
2.80926e-05
2.86548e-05
2.90713e-05
2.9279e-05
2.93871e-05
2.94204e-05
2.93963e-05
2.93383e-05
2.92557e-05
2.91668e-05
2.9076e-05
2.89856e-05
2.88888e-05
2.26188e-05
2.30684e-05
2.34675e-05
2.38198e-05
2.41069e-05
2.43714e-05
2.4583e-05
2.4776e-05
2.49024e-05
2.49841e-05
2.49569e-05
2.48666e-05
1.75828e-05
1.79141e-05
1.81673e-05
1.84613e-05
1.86576e-05
1.88892e-05
1.90109e-05
1.91548e-05
1.91609e-05
1.90844e-05
1.89123e-05
1.86554e-05
2.79626e-05
2.78855e-05
2.78593e-05
2.78201e-05
2.78137e-05
2.77496e-05
2.77015e-05
2.76154e-05
2.75527e-05
2.74504e-05
2.73977e-05
2.73265e-05
2.8772e-05
2.86301e-05
2.84606e-05
2.82694e-05
2.80506e-05
2.78021e-05
2.75218e-05
2.72187e-05
2.69129e-05
2.66632e-05
2.64705e-05
2.66315e-05
2.47233e-05
2.45224e-05
2.42603e-05
2.39381e-05
2.35645e-05
2.31038e-05
2.25834e-05
2.2078e-05
2.16635e-05
2.14452e-05
2.1203e-05
2.16588e-05
1.83476e-05
1.80145e-05
1.76723e-05
1.7354e-05
1.70717e-05
1.68827e-05
1.67916e-05
1.67646e-05
1.67482e-05
1.6802e-05
1.67626e-05
1.69216e-05
2.70912e-05
2.64837e-05
2.61901e-05
2.58641e-05
2.55008e-05
2.50951e-05
2.47031e-05
2.43271e-05
2.40079e-05
2.37331e-05
2.35343e-05
2.33825e-05
2.66519e-05
2.65782e-05
2.65018e-05
2.64215e-05
2.63349e-05
2.62508e-05
2.61691e-05
2.60795e-05
2.59667e-05
2.58591e-05
2.57573e-05
2.56728e-05
2.21075e-05
2.25228e-05
2.28628e-05
2.31476e-05
2.33842e-05
2.35921e-05
2.37567e-05
2.38806e-05
2.39649e-05
2.40031e-05
2.39771e-05
2.39006e-05
1.70941e-05
1.73039e-05
1.74811e-05
1.76938e-05
1.78691e-05
1.8082e-05
1.82547e-05
1.84657e-05
1.8599e-05
1.87335e-05
1.87108e-05
1.85788e-05
2.33126e-05
2.33656e-05
2.34916e-05
2.36584e-05
2.38322e-05
2.39834e-05
2.40911e-05
2.41479e-05
2.41729e-05
2.41365e-05
2.41372e-05
2.39647e-05
2.55983e-05
2.55041e-05
2.53974e-05
2.5267e-05
2.51219e-05
2.49498e-05
2.47681e-05
2.45575e-05
2.43882e-05
2.42178e-05
2.41491e-05
2.40825e-05
2.3769e-05
2.35771e-05
2.3326e-05
2.30228e-05
2.26817e-05
2.23213e-05
2.19347e-05
2.15651e-05
2.12782e-05
2.11525e-05
2.09744e-05
2.13904e-05
1.83221e-05
1.79718e-05
1.75818e-05
1.72034e-05
1.68906e-05
1.66225e-05
1.64385e-05
1.63372e-05
1.62798e-05
1.63233e-05
1.63005e-05
1.65298e-05
2.41635e-05
2.48559e-05
2.51004e-05
2.53621e-05
2.5628e-05
2.59947e-05
2.63447e-05
2.6749e-05
2.70721e-05
2.73838e-05
2.7552e-05
2.77086e-05
2.40372e-05
2.40867e-05
2.41539e-05
2.42042e-05
2.42546e-05
2.42995e-05
2.4361e-05
2.44163e-05
2.44886e-05
2.45373e-05
2.45904e-05
2.45966e-05
2.18051e-05
2.20338e-05
2.21878e-05
2.23027e-05
2.2389e-05
2.24578e-05
2.25088e-05
2.25476e-05
2.25659e-05
2.255e-05
2.2505e-05
2.24261e-05
1.68289e-05
1.71465e-05
1.74179e-05
1.76785e-05
1.7878e-05
1.8065e-05
1.8185e-05
1.8268e-05
1.82486e-05
1.8167e-05
1.80079e-05
1.77862e-05
2.77075e-05
2.76353e-05
2.75087e-05
2.73268e-05
2.70912e-05
2.682e-05
2.65197e-05
2.61891e-05
2.57706e-05
2.62017e-05
2.66285e-05
2.81964e-05
2.45655e-05
2.44964e-05
2.4386e-05
2.42329e-05
2.40393e-05
2.38074e-05
2.3548e-05
2.32787e-05
2.30242e-05
2.32157e-05
2.41172e-05
2.47093e-05
2.2312e-05
2.2159e-05
2.19643e-05
2.17291e-05
2.14524e-05
2.10897e-05
2.07063e-05
2.03344e-05
2.00096e-05
1.97695e-05
1.99859e-05
2.13076e-05
1.75426e-05
1.72877e-05
1.70331e-05
1.67993e-05
1.66181e-05
1.65491e-05
1.65325e-05
1.65821e-05
1.66042e-05
1.66662e-05
1.66171e-05
1.69726e-05
1.77259e-05
1.75482e-05
1.72115e-05
1.67004e-05
1.60052e-05
1.51143e-05
1.40346e-05
1.28476e-05
1.16336e-05
1.05746e-05
9.80873e-06
9.54886e-06
1.6417e-05
1.57175e-05
1.48805e-05
1.38332e-05
1.26044e-05
1.12269e-05
9.80454e-06
8.46935e-06
7.35434e-06
6.58869e-06
6.22237e-06
6.27561e-06
1.47308e-05
1.38613e-05
1.27146e-05
1.14355e-05
1.00183e-05
8.55782e-06
7.16725e-06
5.96296e-06
5.03209e-06
4.43451e-06
4.24203e-06
4.36795e-06
1.32392e-05
1.2247e-05
1.09595e-05
9.62312e-06
8.18641e-06
6.78071e-06
5.48482e-06
4.37948e-06
3.49961e-06
2.87353e-06
2.66123e-06
2.78901e-06
9.59254e-06
1.00522e-05
1.08155e-05
1.17219e-05
1.27991e-05
1.38749e-05
1.46453e-05
1.51771e-05
1.55213e-05
1.57023e-05
1.56708e-05
1.54065e-05
6.7192e-06
7.5284e-06
8.40039e-06
9.40026e-06
1.03167e-05
1.10523e-05
1.16402e-05
1.20775e-05
1.23338e-05
1.22433e-05
1.14573e-05
1.03584e-05
4.98997e-06
5.66141e-06
6.36439e-06
7.02537e-06
7.5487e-06
7.95576e-06
8.27196e-06
8.39585e-06
8.15697e-06
7.49541e-06
6.49917e-06
5.33927e-06
3.95546e-06
4.60843e-06
5.07547e-06
5.40287e-06
5.6306e-06
5.76392e-06
5.72948e-06
5.37137e-06
4.84569e-06
4.0664e-06
3.19722e-06
2.33686e-06
1.46685e-05
1.3723e-05
1.27722e-05
1.17031e-05
1.06934e-05
9.63526e-06
8.65701e-06
7.74859e-06
7.02594e-06
6.60545e-06
6.59851e-06
6.75103e-06
8.63134e-06
7.57266e-06
6.15404e-06
5.22567e-06
4.15478e-06
3.45272e-06
2.7186e-06
2.31177e-06
1.99362e-06
2.01219e-06
2.16432e-06
2.62573e-06
4.02143e-06
3.22484e-06
2.25266e-06
1.8065e-06
1.17818e-06
9.68797e-07
6.17401e-07
5.85618e-07
4.61977e-07
4.92248e-07
5.99665e-07
9.03349e-07
1.57399e-06
1.13884e-06
6.80478e-07
5.35006e-07
2.99419e-07
2.55221e-07
1.66041e-07
1.56466e-07
1.1393e-07
1.1612e-07
1.39428e-07
2.55242e-07
7.34018e-06
8.32236e-06
9.60488e-06
1.1353e-05
1.31327e-05
1.45117e-05
1.54321e-05
1.60081e-05
1.63476e-05
1.65341e-05
1.66337e-05
1.6694e-05
3.29737e-06
4.23121e-06
5.85117e-06
7.85485e-06
1.02475e-05
1.2454e-05
1.4068e-05
1.5035e-05
1.56156e-05
1.59265e-05
1.60673e-05
1.60113e-05
1.43378e-06
1.99331e-06
3.12072e-06
4.82862e-06
7.29835e-06
9.99949e-06
1.23089e-05
1.36898e-05
1.44891e-05
1.48919e-05
1.50489e-05
1.47725e-05
6.63212e-07
1.01242e-06
1.85475e-06
3.27024e-06
5.333e-06
7.94793e-06
1.05349e-05
1.22922e-05
1.32667e-05
1.37507e-05
1.39254e-05
1.34992e-05
1.66996e-05
1.65743e-05
1.62885e-05
1.5831e-05
1.52067e-05
1.4396e-05
1.34083e-05
1.23193e-05
1.11971e-05
1.02238e-05
9.51636e-06
9.28979e-06
1.55452e-05
1.49155e-05
1.41299e-05
1.31867e-05
1.20465e-05
1.07782e-05
9.45432e-06
8.21236e-06
7.16908e-06
6.45693e-06
6.12011e-06
6.18849e-06
1.40003e-05
1.31667e-05
1.21207e-05
1.09422e-05
9.61954e-06
8.26207e-06
6.95229e-06
5.81739e-06
4.92971e-06
4.3601e-06
4.18092e-06
4.31115e-06
1.25936e-05
1.1649e-05
1.04769e-05
9.22868e-06
7.8845e-06
6.56613e-06
5.33389e-06
4.27916e-06
3.42707e-06
2.81932e-06
2.61489e-06
2.74481e-06
9.34043e-06
9.81004e-06
1.05409e-05
1.14114e-05
1.24362e-05
1.34249e-05
1.4132e-05
1.4619e-05
1.49332e-05
1.51027e-05
1.50922e-05
1.4867e-05
6.63124e-06
7.42214e-06
8.27124e-06
9.23533e-06
1.0118e-05
1.08237e-05
1.13848e-05
1.17996e-05
1.2049e-05
1.19867e-05
1.12585e-05
1.02425e-05
4.93434e-06
5.59998e-06
6.29354e-06
6.9454e-06
7.45925e-06
7.85821e-06
8.16651e-06
8.29158e-06
8.07488e-06
7.44271e-06
6.48982e-06
5.36723e-06
3.91169e-06
4.56833e-06
5.03672e-06
5.36407e-06
5.59078e-06
5.72654e-06
5.70198e-06
5.35529e-06
4.84896e-06
4.08715e-06
3.23611e-06
2.38239e-06
1.42444e-05
1.34104e-05
1.25278e-05
1.1568e-05
1.06417e-05
9.69265e-06
8.81592e-06
7.95694e-06
7.26911e-06
6.92487e-06
6.96161e-06
7.24491e-06
8.60261e-06
7.55033e-06
6.23864e-06
5.32077e-06
4.31439e-06
3.61701e-06
2.91703e-06
2.50502e-06
2.2155e-06
2.24466e-06
2.45814e-06
2.98732e-06
4.08025e-06
3.29192e-06
2.34865e-06
1.88182e-06
1.27154e-06
1.03563e-06
6.91676e-07
6.45771e-07
5.31134e-07
5.81254e-07
7.17776e-07
1.1036e-06
1.6216e-06
1.17901e-06
7.17782e-07
5.55827e-07
3.11463e-07
2.64306e-07
1.68103e-07
1.58797e-07
1.19129e-07
1.28327e-07
1.64377e-07
3.24878e-07
8.0752e-06
9.17896e-06
1.08009e-05
1.25144e-05
1.4299e-05
1.55164e-05
1.62864e-05
1.67208e-05
1.69639e-05
1.71395e-05
1.7262e-05
1.75325e-05
3.70162e-06
4.60027e-06
6.27982e-06
8.3654e-06
1.08916e-05
1.32629e-05
1.49246e-05
1.59077e-05
1.64787e-05
1.67801e-05
1.692e-05
1.69585e-05
1.74615e-06
2.32112e-06
3.55028e-06
5.37146e-06
7.88862e-06
1.06829e-05
1.30992e-05
1.45397e-05
1.5375e-05
1.57976e-05
1.59658e-05
1.56487e-05
8.94617e-07
1.27072e-06
2.21068e-06
3.68443e-06
5.84027e-06
8.54497e-06
1.12259e-05
1.3054e-05
1.40694e-05
1.45708e-05
1.47482e-05
1.42484e-05
1.19252e-05
1.08717e-05
9.55617e-06
8.24562e-06
6.86356e-06
5.55148e-06
4.35095e-06
3.31577e-06
2.44891e-06
1.75224e-06
1.23326e-06
8.63653e-07
1.07323e-05
9.67338e-06
8.39546e-06
7.15255e-06
5.85941e-06
4.65336e-06
3.55055e-06
2.59364e-06
1.78152e-06
1.12192e-06
6.21491e-07
2.95746e-07
9.61e-06
8.59108e-06
7.38911e-06
6.23775e-06
5.05094e-06
3.95593e-06
2.95464e-06
2.08687e-06
1.35689e-06
7.80721e-07
3.71081e-07
1.47365e-07
8.52298e-06
7.58062e-06
6.47751e-06
5.43307e-06
4.362e-06
3.3797e-06
2.4812e-06
1.7056e-06
1.06337e-06
5.75603e-07
2.52125e-07
9.56895e-08
7.45006e-06
6.61303e-06
5.62245e-06
4.69548e-06
3.74494e-06
2.87504e-06
2.07803e-06
1.39259e-06
8.3489e-07
4.28176e-07
1.77664e-07
6.82084e-08
6.38006e-06
5.6689e-06
4.79876e-06
3.99665e-06
3.16889e-06
2.41058e-06
1.71384e-06
1.11726e-06
6.42214e-07
3.11743e-07
1.2329e-07
4.78265e-08
5.30965e-06
4.73381e-06
3.98971e-06
3.31761e-06
2.61448e-06
1.96877e-06
1.37405e-06
8.6868e-07
4.77603e-07
2.19596e-07
8.3128e-08
3.25322e-08
4.24662e-06
3.80115e-06
3.18957e-06
2.65054e-06
2.07525e-06
1.54606e-06
1.05858e-06
6.49025e-07
3.42155e-07
1.49869e-07
5.45653e-08
2.14275e-08
3.21548e-06
2.88778e-06
2.4139e-06
2.00737e-06
1.56289e-06
1.15419e-06
7.78005e-07
4.65659e-07
2.37724e-07
1.00217e-07
3.51917e-08
1.36989e-08
2.27851e-06
2.05217e-06
1.7119e-06
1.42879e-06
1.11074e-06
8.188e-07
5.49094e-07
3.25791e-07
1.63835e-07
6.72815e-08
2.27182e-08
8.59248e-09
1.5465e-06
1.39554e-06
1.16601e-06
9.81812e-07
7.68406e-07
5.72571e-07
3.88693e-07
2.33386e-07
1.17915e-07
4.76041e-08
1.52766e-08
5.52917e-09
1.14261e-06
1.03189e-06
8.66286e-07
7.37931e-07
5.84862e-07
4.43917e-07
3.08299e-07
1.8896e-07
9.6901e-08
3.86363e-08
1.16943e-08
4.10072e-09
3.20202e-06
3.86411e-06
4.16927e-06
4.32314e-06
4.36998e-06
4.21125e-06
3.86316e-06
3.35178e-06
2.75271e-06
2.0768e-06
1.45782e-06
9.43618e-07
2.89868e-06
3.38225e-06
3.56151e-06
3.6135e-06
3.46704e-06
3.12856e-06
2.6693e-06
2.13105e-06
1.58704e-06
1.07662e-06
6.84385e-07
4.13289e-07
2.661e-06
3.03114e-06
3.14465e-06
3.10918e-06
2.83378e-06
2.42646e-06
1.94396e-06
1.44327e-06
9.91444e-07
6.2354e-07
3.81967e-07
2.47638e-07
2.45684e-06
2.75526e-06
2.83469e-06
2.73984e-06
2.41188e-06
1.99195e-06
1.53006e-06
1.08729e-06
7.20003e-07
4.51234e-07
2.98436e-07
2.28947e-07
2.26947e-06
2.51921e-06
2.58555e-06
2.47418e-06
2.14442e-06
1.74487e-06
1.32526e-06
9.46593e-07
6.55445e-07
4.48588e-07
3.22004e-07
2.69817e-07
2.08838e-06
2.30028e-06
2.36955e-06
2.27912e-06
1.98577e-06
1.62997e-06
1.27207e-06
9.54306e-07
6.93892e-07
5.12408e-07
4.13001e-07
3.72221e-07
1.90529e-06
2.07712e-06
2.16007e-06
2.11219e-06
1.89486e-06
1.5981e-06
1.29428e-06
1.01693e-06
8.04087e-07
6.55615e-07
5.65891e-07
5.16411e-07
1.71348e-06
1.82981e-06
1.92502e-06
1.92166e-06
1.80551e-06
1.5849e-06
1.34869e-06
1.1304e-06
9.52288e-07
8.19113e-07
7.25464e-07
6.60702e-07
1.50337e-06
1.54708e-06
1.63808e-06
1.67575e-06
1.62627e-06
1.52131e-06
1.34804e-06
1.18822e-06
1.0468e-06
9.28761e-07
8.33537e-07
7.54756e-07
1.26558e-06
1.24394e-06
1.30408e-06
1.36302e-06
1.35542e-06
1.31683e-06
1.25021e-06
1.14749e-06
1.03685e-06
9.39294e-07
8.53246e-07
7.75792e-07
1.01489e-06
9.68762e-07
9.85568e-07
1.03287e-06
1.0514e-06
1.0424e-06
1.01596e-06
9.78116e-07
9.29651e-07
8.66623e-07
8.02445e-07
7.40652e-07
8.32225e-07
7.96345e-07
7.89412e-07
8.12354e-07
8.36905e-07
8.48847e-07
8.43676e-07
8.29745e-07
8.11101e-07
7.84845e-07
7.45742e-07
7.0081e-07
5.82312e-07
3.94904e-07
2.40154e-07
1.991e-07
1.43455e-07
1.31085e-07
1.00094e-07
8.84981e-08
6.41109e-08
5.09559e-08
4.17452e-08
4.7104e-08
2.65232e-07
1.99384e-07
1.64384e-07
1.55806e-07
1.42408e-07
1.34905e-07
1.1892e-07
9.92955e-08
7.45997e-08
4.92178e-08
3.06576e-08
2.33229e-08
1.95942e-07
1.81153e-07
1.79041e-07
1.85362e-07
1.85995e-07
1.7992e-07
1.63565e-07
1.37668e-07
1.04484e-07
6.89001e-08
3.68528e-08
2.26152e-08
2.07646e-07
2.11784e-07
2.23082e-07
2.33412e-07
2.36157e-07
2.27383e-07
2.06121e-07
1.73112e-07
1.31092e-07
8.69807e-08
4.63691e-08
2.70809e-08
2.65546e-07
2.74598e-07
2.85124e-07
2.91339e-07
2.88949e-07
2.73496e-07
2.45069e-07
2.04835e-07
1.55207e-07
1.03527e-07
5.51829e-08
3.07545e-08
3.63423e-07
3.64488e-07
3.65099e-07
3.59341e-07
3.43991e-07
3.17453e-07
2.79769e-07
2.32226e-07
1.76355e-07
1.19102e-07
6.4607e-08
3.51747e-08
4.90035e-07
4.71435e-07
4.5198e-07
4.27304e-07
3.95502e-07
3.55853e-07
3.08393e-07
2.54376e-07
1.9405e-07
1.33264e-07
7.41368e-08
3.98528e-08
6.12048e-07
5.69362e-07
5.27189e-07
4.82645e-07
4.34777e-07
3.83496e-07
3.28525e-07
2.70306e-07
2.07812e-07
1.45643e-07
8.3725e-08
4.46111e-08
6.86811e-07
6.25466e-07
5.675e-07
5.10733e-07
4.54068e-07
3.96925e-07
3.38665e-07
2.79342e-07
2.17481e-07
1.56004e-07
9.32989e-08
4.95796e-08
7.05228e-07
6.39812e-07
5.77792e-07
5.17715e-07
4.58738e-07
4.00305e-07
3.41855e-07
2.83098e-07
2.23691e-07
1.64426e-07
1.02854e-07
5.47426e-08
6.80774e-07
6.22378e-07
5.64883e-07
5.07867e-07
4.51317e-07
3.95152e-07
3.39322e-07
2.83475e-07
2.27537e-07
1.71519e-07
1.12802e-07
6.02383e-08
6.52149e-07
6.01037e-07
5.48446e-07
4.95075e-07
4.41688e-07
3.88545e-07
3.35968e-07
2.83366e-07
2.31414e-07
1.78559e-07
1.24118e-07
6.49144e-08
3.44716e-07
5.49706e-07
1.13259e-06
2.20878e-06
3.94864e-06
6.29375e-06
8.87582e-06
1.0897e-05
1.20115e-05
1.25739e-05
1.27755e-05
1.22906e-05
2.25692e-07
3.25778e-07
7.28137e-07
1.54595e-06
2.94477e-06
4.97356e-06
7.38131e-06
9.53198e-06
1.07484e-05
1.138e-05
1.16153e-05
1.11457e-05
1.54993e-07
2.04435e-07
4.7506e-07
1.08628e-06
2.2033e-06
3.9095e-06
6.06691e-06
8.19533e-06
9.48857e-06
1.01732e-05
1.04431e-05
1.00398e-05
1.06089e-07
1.3099e-07
3.14108e-07
7.66719e-07
1.64376e-06
3.04851e-06
4.92208e-06
6.90845e-06
8.2407e-06
8.95641e-06
9.25665e-06
8.94989e-06
7.07627e-08
8.39367e-08
2.07092e-07
5.39638e-07
1.22183e-06
2.35467e-06
3.92672e-06
5.70357e-06
7.01359e-06
7.73406e-06
8.05631e-06
7.85957e-06
4.52839e-08
5.30783e-08
1.35208e-07
3.77801e-07
9.052e-07
1.80495e-06
3.08054e-06
4.59537e-06
5.81869e-06
6.5132e-06
6.84512e-06
6.75652e-06
2.74472e-08
3.2767e-08
8.6787e-08
2.62616e-07
6.70122e-07
1.37875e-06
2.38145e-06
3.6051e-06
4.67504e-06
5.30749e-06
5.63113e-06
5.62905e-06
1.56323e-08
1.96513e-08
5.4352e-08
1.81013e-07
4.97727e-07
1.05726e-06
1.82537e-06
2.75547e-06
3.61294e-06
4.14556e-06
4.43997e-06
4.47461e-06
8.35744e-09