/*--------------------------------*- C++ -*----------------------------------*\
| =========                 |                                                 |
| \\      /  F ield         | OpenFOAM: The Open Source CFD Toolbox           |
|  \\    /   O peration     | Version:  2212                                  |
|   \\  /    A nd           | Website:  www.openfoam.com                      |
|    \\/     M anipulation  |                                                 |
\*---------------------------------------------------------------------------*/
FoamFile
{
    version     2.0;
    format      ascii;
    arch        "LSB;label=32;scalar=64";
    class       volScalarField;
    location    "0.09";
    object      tracer0;
}
// * * * * * * * * * * * * * * * * * * * * * * * * * * * * * * * * * * * * * //

dimensions      [0 0 0 0 0 0 0];

internalField   nonuniform List<scalar> 
3072
(
2.83728e-05
2.83683e-05
2.8337e-05
2.82626e-05
2.82028e-05
2.81121e-05
2.8109e-05
2.83382e-05
3.03059e-05
3.14703e-05
3.15563e-05
3.15765e-05
2.86745e-05
2.86133e-05
2.84549e-05
2.82782e-05
2.81677e-05
2.83946e-05
2.92962e-05
3.06024e-05
3.11708e-05
3.13405e-05
3.11908e-05
3.0915e-05
2.88078e-05
2.86876e-05
2.84218e-05
2.82568e-05
2.85324e-05
2.96522e-05
3.06105e-05
3.09237e-05
3.10017e-05
3.06925e-05
2.98278e-05
2.87275e-05
2.89289e-05
2.87369e-05
2.84874e-05
2.86517e-05
2.95511e-05
3.04137e-05
3.06798e-05
3.07275e-05
3.02044e-05
2.86327e-05
2.62895e-05
2.44693e-05
2.90656e-05
2.9099e-05
2.90345e-05
2.9463e-05
3.01958e-05
3.0482e-05
3.05405e-05
3.00832e-05
2.8313e-05
2.56249e-05
2.32528e-05
2.14535e-05
2.91697e-05
2.93872e-05
2.95093e-05
3.00028e-05
3.03173e-05
3.04065e-05
3.01811e-05
2.88681e-05
2.62455e-05
2.33844e-05
2.1197e-05
1.95274e-05
2.9288e-05
2.96488e-05
2.98596e-05
3.01606e-05
3.02697e-05
3.02152e-05
2.94868e-05
2.7539e-05
2.49206e-05
2.24285e-05
2.05265e-05
1.90312e-05
2.95057e-05
2.97789e-05
2.99465e-05
3.01334e-05
3.01762e-05
2.99465e-05
2.90645e-05
2.73944e-05
2.5025e-05
2.26672e-05
2.08283e-05
1.93802e-05
3.29791e-05
3.19857e-05
3.00467e-05
3.00091e-05
2.9991e-05
2.97792e-05
2.91141e-05
2.76872e-05
2.56605e-05
2.35549e-05
2.18272e-05
2.04591e-05
3.66812e-05
3.45741e-05
3.22702e-05
3.01386e-05
2.99851e-05
2.98106e-05
2.93682e-05
2.84429e-05
2.7156e-05
2.56172e-05
2.41847e-05
2.29281e-05
3.90302e-05
4.05237e-05
3.96574e-05
3.36378e-05
3.15216e-05
3.06908e-05
3.02161e-05
2.96263e-05
2.88069e-05
2.77325e-05
2.6687e-05
2.56855e-05
4.31802e-05
4.40065e-05
4.62149e-05
4.5026e-05
4.24353e-05
3.97664e-05
3.75898e-05
3.57518e-05
3.42369e-05
3.29794e-05
3.19197e-05
3.11328e-05
3.15926e-05
3.16117e-05
3.16334e-05
3.16633e-05
3.16979e-05
3.17494e-05
3.18191e-05
3.18934e-05
3.19599e-05
3.2003e-05
3.20226e-05
3.20059e-05
3.06161e-05
3.03397e-05
3.01778e-05
3.01462e-05
3.02524e-05
3.05017e-05
3.08531e-05
3.12956e-05
3.16927e-05
3.1967e-05
3.2098e-05
3.21498e-05
2.74997e-05
2.66965e-05
2.61455e-05
2.60579e-05
2.62278e-05
2.68574e-05
2.77456e-05
2.90561e-05
3.04111e-05
3.14974e-05
3.20086e-05
3.22002e-05
2.29929e-05
2.19657e-05
2.13501e-05
2.12273e-05
2.13775e-05
2.22148e-05
2.34328e-05
2.54061e-05
2.79224e-05
3.04721e-05
3.17534e-05
3.22343e-05
2.0009e-05
1.91376e-05
1.86898e-05
1.86044e-05
1.88276e-05
1.95975e-05
2.08127e-05
2.26911e-05
2.54166e-05
2.90175e-05
3.14181e-05
3.22756e-05
1.83104e-05
1.76176e-05
1.72947e-05
1.72313e-05
1.76018e-05
1.83412e-05
1.95633e-05
2.14073e-05
2.41682e-05
2.80272e-05
3.11665e-05
3.23147e-05
1.79184e-05
1.71987e-05
1.67659e-05
1.67078e-05
1.7156e-05
1.78937e-05
1.91029e-05
2.09106e-05
2.36314e-05
2.75749e-05
3.10081e-05
3.23573e-05
1.82923e-05
1.75857e-05
1.71483e-05
1.7223e-05
1.74959e-05
1.80856e-05
1.92064e-05
2.09147e-05
2.35958e-05
2.75003e-05
3.09609e-05
3.23982e-05
1.94359e-05
1.87553e-05
1.84467e-05
1.86318e-05
1.9037e-05
1.97821e-05
2.1056e-05
2.28595e-05
2.54823e-05
2.88449e-05
3.15016e-05
3.24775e-05
2.20719e-05
2.13772e-05
2.12231e-05
2.14874e-05
2.19548e-05
2.27295e-05
2.39343e-05
2.55416e-05
2.79587e-05
3.04565e-05
3.20521e-05
3.25835e-05
2.50585e-05
2.46387e-05
2.47741e-05
2.52122e-05
2.58671e-05
2.68607e-05
2.82306e-05
3.00599e-05
3.15614e-05
3.23372e-05
3.26641e-05
3.26784e-05
3.04936e-05
3.03032e-05
3.06234e-05
3.11331e-05
3.17412e-05
3.2356e-05
3.2828e-05
3.3046e-05
3.30197e-05
3.29406e-05
3.28343e-05
3.27115e-05
2.22106e-05
2.22079e-05
2.21939e-05
2.21566e-05
2.2125e-05
2.20776e-05
2.2081e-05
2.22189e-05
2.33888e-05
2.40867e-05
2.4141e-05
2.41549e-05
2.23773e-05
2.23523e-05
2.22778e-05
2.218e-05
2.21266e-05
2.22702e-05
2.28525e-05
2.35477e-05
2.38519e-05
2.39466e-05
2.37589e-05
2.34811e-05
2.24512e-05
2.24052e-05
2.22753e-05
2.21865e-05
2.23473e-05
2.30162e-05
2.34747e-05
2.36132e-05
2.3642e-05
2.322e-05
2.22839e-05
2.13137e-05
2.25169e-05
2.24588e-05
2.23244e-05
2.2417e-05
2.29396e-05
2.33391e-05
2.34417e-05
2.34031e-05
2.28322e-05
2.12869e-05
1.99354e-05
1.90216e-05
2.25871e-05
2.26515e-05
2.26379e-05
2.28828e-05
2.3207e-05
2.33082e-05
2.32721e-05
2.27315e-05
2.12048e-05
1.956e-05
1.83994e-05
1.74592e-05
2.26253e-05
2.27995e-05
2.28781e-05
2.30981e-05
2.3196e-05
2.32142e-05
2.29025e-05
2.17554e-05
1.99254e-05
1.84208e-05
1.73589e-05
1.64686e-05
2.26596e-05
2.28825e-05
2.29869e-05
2.31029e-05
2.31429e-05
2.30079e-05
2.2312e-05
2.08502e-05
1.91817e-05
1.79351e-05
1.70011e-05
1.62068e-05
2.26806e-05
2.29056e-05
2.30061e-05
2.30624e-05
2.30308e-05
2.27555e-05
2.19989e-05
2.0763e-05
1.92482e-05
1.80515e-05
1.71478e-05
1.63844e-05
2.26839e-05
2.28951e-05
2.29673e-05
2.29802e-05
2.29161e-05
2.26472e-05
2.20485e-05
2.09716e-05
1.96307e-05
1.85052e-05
1.76448e-05
1.69307e-05
2.2684e-05
2.28523e-05
2.28819e-05
2.28842e-05
2.28284e-05
2.26685e-05
2.22995e-05
2.16272e-05
2.06219e-05
1.96071e-05
1.87673e-05
1.80643e-05
2.26465e-05
2.2753e-05
2.27689e-05
2.27761e-05
2.27762e-05
2.27294e-05
2.25729e-05
2.22487e-05
2.18466e-05
2.12219e-05
2.0718e-05
2.01382e-05
2.29829e-05
2.31095e-05
2.32304e-05
2.32836e-05
2.32968e-05
2.32211e-05
2.31663e-05
2.29857e-05
2.27671e-05
2.24299e-05
2.20715e-05
2.17814e-05
2.41684e-05
2.41836e-05
2.42011e-05
2.42255e-05
2.42599e-05
2.43104e-05
2.43874e-05
2.4475e-05
2.45723e-05
2.46439e-05
2.46783e-05
2.4684e-05
2.31614e-05
2.28668e-05
2.26807e-05
2.26373e-05
2.2716e-05
2.2904e-05
2.32016e-05
2.36019e-05
2.40585e-05
2.44923e-05
2.47138e-05
2.47938e-05
2.05469e-05
1.99993e-05
1.97347e-05
1.96415e-05
1.9727e-05
2.0066e-05
2.05899e-05
2.14066e-05
2.24137e-05
2.36529e-05
2.45189e-05
2.48327e-05
1.8192e-05
1.77257e-05
1.74096e-05
1.73496e-05
1.74234e-05
1.78224e-05
1.83969e-05
1.93378e-05
2.05724e-05
2.21849e-05
2.40848e-05
2.48679e-05
1.67208e-05
1.63061e-05
1.60629e-05
1.6018e-05
1.61298e-05
1.65401e-05
1.71855e-05
1.81735e-05
1.95446e-05
2.11451e-05
2.34939e-05
2.49113e-05
1.5865e-05
1.55034e-05
1.53262e-05
1.52907e-05
1.54778e-05
1.58557e-05
1.64805e-05
1.74352e-05
1.89117e-05
2.05896e-05
2.30027e-05
2.49594e-05
1.56524e-05
1.52778e-05
1.50478e-05
1.50152e-05
1.52447e-05
1.56209e-05
1.62363e-05
1.71625e-05
1.86596e-05
2.03425e-05
2.27598e-05
2.50101e-05
1.58369e-05
1.54731e-05
1.52422e-05
1.52774e-05
1.54118e-05
1.57075e-05
1.6271e-05
1.71586e-05
1.86422e-05
2.03056e-05
2.26845e-05
2.50594e-05
1.6407e-05
1.60564e-05
1.5891e-05
1.59803e-05
1.6183e-05
1.65647e-05
1.72161e-05
1.81834e-05
1.95762e-05
2.09502e-05
2.30386e-05
2.51675e-05
1.76207e-05
1.72467e-05
1.72157e-05
1.73768e-05
1.76511e-05
1.80844e-05
1.87227e-05
1.9607e-05
2.07016e-05
2.18613e-05
2.36939e-05
2.5391e-05
1.98213e-05
1.95054e-05
1.95209e-05
1.97081e-05
1.99891e-05
2.04047e-05
2.09752e-05
2.17549e-05
2.26689e-05
2.37451e-05
2.50206e-05
2.57468e-05
2.15009e-05
2.15004e-05
2.16693e-05
2.19605e-05
2.23655e-05
2.29258e-05
2.36739e-05
2.44595e-05
2.53141e-05
2.57719e-05
2.61129e-05
2.60526e-05
2.02694e-05
2.02749e-05
2.02879e-05
2.02964e-05
2.03086e-05
2.03144e-05
2.03248e-05
2.03293e-05
2.0326e-05
2.03538e-05
2.0368e-05
2.03781e-05
2.02512e-05
2.0277e-05
2.0319e-05
2.03408e-05
2.03554e-05
2.03393e-05
2.03128e-05
2.02902e-05
2.02431e-05
2.01577e-05
1.9927e-05
1.96065e-05
2.02448e-05
2.03177e-05
2.03665e-05
2.03839e-05
2.03491e-05
2.03067e-05
2.02393e-05
2.01185e-05
1.98526e-05
1.93003e-05
1.82614e-05
1.71477e-05
2.02328e-05
2.03362e-05
2.0379e-05
2.0363e-05
2.03078e-05
2.02169e-05
2.00384e-05
1.96382e-05
1.87291e-05
1.71755e-05
1.56171e-05
1.45895e-05
2.02226e-05
2.03174e-05
2.03439e-05
2.03099e-05
2.0211e-05
2.0008e-05
1.95316e-05
1.85684e-05
1.70231e-05
1.52611e-05
1.38403e-05
1.28036e-05
2.01845e-05
2.02632e-05
2.02808e-05
2.02017e-05
2.00064e-05
1.96146e-05
1.88647e-05
1.75107e-05
1.56554e-05
1.39191e-05
1.26251e-05
1.16349e-05
2.01324e-05
2.0164e-05
2.01504e-05
1.99996e-05
1.97213e-05
1.91803e-05
1.81423e-05
1.65622e-05
1.48555e-05
1.33584e-05
1.22284e-05
1.13358e-05
2.00669e-05
2.00654e-05
1.99992e-05
1.97863e-05
1.94391e-05
1.87775e-05
1.77995e-05
1.64861e-05
1.49325e-05
1.35066e-05
1.24096e-05
1.15496e-05
2.0037e-05
1.99728e-05
1.97963e-05
1.95326e-05
1.91848e-05
1.86837e-05
1.78653e-05
1.67075e-05
1.5355e-05
1.40575e-05
1.30111e-05
1.22013e-05
1.99537e-05
1.977e-05
1.95928e-05
1.94013e-05
1.91836e-05
1.8778e-05
1.81482e-05
1.73429e-05
1.6351e-05
1.53202e-05
1.43689e-05
1.35735e-05
1.99379e-05
1.97715e-05
1.96287e-05
1.94795e-05
1.933e-05
1.90755e-05
1.87361e-05
1.8234e-05
1.77268e-05
1.70363e-05
1.64852e-05
1.585e-05
2.0187e-05
2.01608e-05
2.01892e-05
2.01653e-05
2.00937e-05
1.99064e-05
1.9702e-05
1.93575e-05
1.89817e-05
1.85449e-05
1.80825e-05
1.77677e-05
2.03893e-05
2.04022e-05
2.04182e-05
2.04399e-05
2.0477e-05
2.0531e-05
2.06172e-05
2.07144e-05
2.08256e-05
2.09102e-05
2.0953e-05
2.0967e-05
1.92325e-05
1.88901e-05
1.86713e-05
1.86193e-05
1.87052e-05
1.89111e-05
1.92422e-05
1.96869e-05
2.01985e-05
2.06986e-05
2.09587e-05
2.10511e-05
1.62973e-05
1.56753e-05
1.53878e-05
1.52761e-05
1.53713e-05
1.57504e-05
1.6332e-05
1.72366e-05
1.83405e-05
1.97027e-05
2.07112e-05
2.1081e-05
1.36471e-05
1.31036e-05
1.27456e-05
1.2679e-05
1.27676e-05
1.32375e-05
1.38966e-05
1.49675e-05
1.63418e-05
1.80679e-05
2.01934e-05
2.11151e-05
1.19e-05
1.14238e-05
1.11286e-05
1.10756e-05
1.12137e-05
1.17036e-05
1.24687e-05
1.36153e-05
1.52142e-05
1.69778e-05
1.94816e-05
2.11575e-05
1.0868e-05
1.04708e-05
1.0248e-05
1.02063e-05
1.04377e-05
1.08996e-05
1.16605e-05
1.27604e-05
1.44867e-05
1.6365e-05
1.89287e-05
2.12087e-05
1.06301e-05
1.02013e-05
9.91565e-06
9.8754e-06
1.01571e-05
1.06179e-05
1.13782e-05
1.24469e-05
1.42007e-05
1.60973e-05
1.86504e-05
2.12596e-05
1.08641e-05
1.04379e-05
1.01584e-05
1.02033e-05
1.03699e-05
1.0732e-05
1.14424e-05
1.24452e-05
1.4182e-05
1.60567e-05
1.85641e-05
2.13114e-05
1.15681e-05
1.11506e-05
1.0957e-05
1.10678e-05
1.13147e-05
1.17729e-05
1.25778e-05
1.36368e-05
1.52649e-05
1.67669e-05
1.89247e-05
2.14277e-05
1.30615e-05
1.26285e-05
1.25846e-05
1.27696e-05
1.30831e-05
1.35764e-05
1.43322e-05
1.52322e-05
1.65255e-05
1.77098e-05
1.96307e-05
2.16844e-05
1.54985e-05
1.51549e-05
1.51774e-05
1.539e-05
1.57053e-05
1.61647e-05
1.67855e-05
1.75766e-05
1.86827e-05
1.96499e-05
2.1081e-05
2.2105e-05
1.74701e-05
1.74534e-05
1.7625e-05
1.79305e-05
1.83397e-05
1.89035e-05
1.96177e-05
2.0513e-05
2.13818e-05
2.20321e-05
2.26514e-05
2.26058e-05
3.01207e-05
3.01161e-05
3.00906e-05
3.0025e-05
2.99706e-05
2.98865e-05
2.98888e-05
3.01125e-05
3.20292e-05
3.31587e-05
3.32403e-05
3.32597e-05
3.04039e-05
3.03576e-05
3.02248e-05
3.00564e-05
2.99596e-05
3.01968e-05
3.11496e-05
3.2286e-05
3.27804e-05
3.29313e-05
3.26194e-05
3.21671e-05
3.05285e-05
3.04418e-05
3.02119e-05
3.00566e-05
3.03228e-05
3.14271e-05
3.21782e-05
3.24028e-05
3.2449e-05
3.17758e-05
3.02864e-05
2.85177e-05
3.0639e-05
3.05209e-05
3.02856e-05
3.04386e-05
3.13059e-05
3.19601e-05
3.21254e-05
3.20547e-05
3.11011e-05
2.85e-05
2.59165e-05
2.42477e-05
3.07588e-05
3.08518e-05
3.08164e-05
3.12161e-05
3.17484e-05
3.19111e-05
3.18452e-05
3.09392e-05
2.8315e-05
2.52733e-05
2.30154e-05
2.12689e-05
3.08239e-05
3.10964e-05
3.12174e-05
3.1575e-05
3.17321e-05
3.17591e-05
3.12359e-05
2.92387e-05
2.59593e-05
2.30797e-05
2.10192e-05
1.93372e-05
3.08892e-05
3.12406e-05
3.14039e-05
3.1588e-05
3.16488e-05
3.14184e-05
3.01947e-05
2.76145e-05
2.4582e-05
2.21624e-05
2.03547e-05
1.88411e-05
3.09294e-05
3.12863e-05
3.14417e-05
3.15276e-05
3.14762e-05
3.09805e-05
2.96709e-05
2.74818e-05
2.4711e-05
2.23962e-05
2.06455e-05
1.91922e-05
3.09394e-05
3.12711e-05
3.13778e-05
3.13906e-05
3.12676e-05
3.08223e-05
2.97697e-05
2.78643e-05
2.54323e-05
2.32826e-05
2.16093e-05
2.02767e-05
3.09393e-05
3.12114e-05
3.12656e-05
3.12783e-05
3.11843e-05
3.09016e-05
3.02515e-05
2.9026e-05
2.71825e-05
2.53069e-05
2.36754e-05
2.23543e-05
3.08898e-05
3.10728e-05
3.10595e-05
3.10561e-05
3.10199e-05
3.09302e-05
3.07565e-05
3.03659e-05
2.97973e-05
2.8702e-05
2.77843e-05
2.66381e-05
3.04679e-05
3.04262e-05
3.03023e-05
3.02474e-05
3.02303e-05
3.03312e-05
3.0374e-05
3.02786e-05
3.01436e-05
2.99594e-05
2.96857e-05
2.93373e-05
3.32798e-05
3.33017e-05
3.33277e-05
3.33633e-05
3.34177e-05
3.34966e-05
3.36173e-05
3.37505e-05
3.38928e-05
3.39877e-05
3.40338e-05
3.40418e-05
3.16459e-05
3.11683e-05
3.08699e-05
3.07924e-05
3.09289e-05
3.12548e-05
3.17613e-05
3.24332e-05
3.31675e-05
3.37859e-05
3.40797e-05
3.4188e-05
2.71955e-05
2.61351e-05
2.56633e-05
2.54921e-05
2.56556e-05
2.62948e-05
2.72619e-05
2.87562e-05
3.05577e-05
3.26846e-05
3.38141e-05
3.42399e-05
2.26469e-05
2.17443e-05
2.11405e-05
2.1027e-05
2.11726e-05
2.19472e-05
2.30471e-05
2.4815e-05
2.71098e-05
3.03605e-05
3.32226e-05
3.42871e-05
1.98002e-05
1.90263e-05
1.85534e-05
1.84706e-05
1.87094e-05
1.95329e-05
2.0828e-05
2.27138e-05
2.49868e-05
2.82968e-05
3.24381e-05
3.43456e-05
1.81218e-05
1.74473e-05
1.70874e-05
1.70174e-05
1.73861e-05
1.81293e-05
1.93746e-05
2.14894e-05
2.38605e-05
2.72311e-05
3.17152e-05
3.44098e-05
1.77276e-05
1.7011e-05
1.65507e-05
1.64847e-05
1.69335e-05
1.76683e-05
1.8859e-05
2.10169e-05
2.33998e-05
2.67573e-05
3.13384e-05
3.44798e-05
1.81008e-05
1.73986e-05
1.69442e-05
1.70155e-05
1.7282e-05
1.78639e-05
1.89105e-05
2.1058e-05
2.33728e-05
2.66856e-05
3.12141e-05
3.45471e-05
1.92339e-05
1.85619e-05
1.82358e-05
1.84079e-05
1.88016e-05
1.95543e-05
2.08079e-05
2.31729e-05
2.50055e-05
2.79515e-05
3.15521e-05
3.46229e-05
2.15198e-05
2.08049e-05
2.07674e-05
2.10906e-05
2.16516e-05
2.25816e-05
2.39502e-05
2.58621e-05
2.66288e-05
2.88517e-05
3.019e-05
3.33e-05
2.60297e-05
2.53881e-05
2.54341e-05
2.57806e-05
2.62354e-05
2.67606e-05
2.71879e-05
2.74576e-05
2.73959e-05
2.83337e-05
2.95881e-05
3.27131e-05
2.90326e-05
2.88202e-05
2.86678e-05
2.85419e-05
2.83659e-05
2.82102e-05
2.79767e-05
2.77655e-05
2.73249e-05
2.79461e-05
2.87595e-05
3.16952e-05
3.07492e-05
3.22887e-05
3.5282e-05
3.6081e-05
3.68313e-05
3.75869e-05
3.74688e-05
3.72504e-05
3.69815e-05
3.65755e-05
3.61074e-05
3.57349e-05
2.65372e-05
2.71818e-05
2.93489e-05
2.97389e-05
3.02533e-05
3.07739e-05
3.17031e-05
3.25895e-05
3.34184e-05
3.4004e-05
3.43506e-05
3.43886e-05
2.28997e-05
2.46504e-05
2.50187e-05
2.53339e-05
2.57389e-05
2.61193e-05
2.66055e-05
2.70946e-05
2.76481e-05
2.81207e-05
2.86034e-05
2.88971e-05
2.12266e-05
2.14317e-05
2.1663e-05
2.19307e-05
2.22474e-05
2.26252e-05
2.30737e-05
2.35757e-05
2.41099e-05
2.4478e-05
2.47636e-05
2.45726e-05
3.53878e-05
3.5226e-05
3.50278e-05
3.48052e-05
3.45317e-05
3.42202e-05
3.38487e-05
3.34535e-05
3.30198e-05
3.26412e-05
3.22164e-05
3.23157e-05
3.42287e-05
3.39116e-05
3.35035e-05
3.29845e-05
3.23487e-05
3.1639e-05
3.08199e-05
3.00504e-05
2.92597e-05
2.86909e-05
2.82472e-05
2.8671e-05
2.87085e-05
2.8298e-05
2.77193e-05
2.70467e-05
2.62894e-05
2.5507e-05
2.4659e-05
2.39348e-05
2.32362e-05
2.28527e-05
2.26162e-05
2.29722e-05
2.38658e-05
2.31186e-05
2.23677e-05
2.167e-05
2.10593e-05
2.04927e-05
2.01472e-05
1.98709e-05
1.97974e-05
1.97826e-05
1.97607e-05
1.98574e-05
3.201e-05
3.11162e-05
3.07159e-05
3.02507e-05
2.96873e-05
2.89684e-05
2.81414e-05
2.73481e-05
2.65671e-05
2.59673e-05
2.54317e-05
2.50936e-05
2.93989e-05
2.96213e-05
2.97645e-05
2.97609e-05
2.96784e-05
2.95598e-05
2.94439e-05
2.92944e-05
2.90752e-05
2.88065e-05
2.85847e-05
2.83487e-05
2.34327e-05
2.39568e-05
2.45142e-05
2.50558e-05
2.56342e-05
2.62123e-05
2.67544e-05
2.72413e-05
2.75781e-05
2.77656e-05
2.783e-05
2.77821e-05
2.00798e-05
2.02606e-05
2.0542e-05
2.07965e-05
2.11813e-05
2.15632e-05
2.20977e-05
2.26069e-05
2.32683e-05
2.37888e-05
2.41695e-05
2.40016e-05
2.48861e-05
2.5002e-05
2.52964e-05
2.56465e-05
2.60227e-05
2.63583e-05
2.65895e-05
2.66666e-05
2.66387e-05
2.65736e-05
2.65348e-05
2.64764e-05
2.82332e-05
2.81283e-05
2.80039e-05
2.78482e-05
2.76601e-05
2.743e-05
2.71752e-05
2.6887e-05
2.66134e-05
2.63711e-05
2.61779e-05
2.61917e-05
2.75908e-05
2.73034e-05
2.69305e-05
2.64688e-05
2.5947e-05
2.53293e-05
2.47144e-05
2.40322e-05
2.34875e-05
2.31092e-05
2.29011e-05
2.31713e-05
2.33549e-05
2.26783e-05
2.20047e-05
2.13698e-05
2.07741e-05
2.0314e-05
1.9913e-05
1.97547e-05
1.96927e-05
1.96864e-05
1.96399e-05
1.97976e-05
2.62297e-05
2.56452e-05
2.53668e-05
2.50546e-05
2.46453e-05
2.41286e-05
2.3524e-05
2.29291e-05
2.23151e-05
2.18029e-05
2.13574e-05
2.10183e-05
2.61539e-05
2.60783e-05
2.60112e-05
2.5946e-05
2.58637e-05
2.57372e-05
2.55855e-05
2.53778e-05
2.51588e-05
2.48948e-05
2.4674e-05
2.44436e-05
2.3577e-05
2.39107e-05
2.42208e-05
2.44704e-05
2.46782e-05
2.48429e-05
2.49598e-05
2.50235e-05
2.50084e-05
2.49567e-05
2.48997e-05
2.48395e-05
1.99792e-05
2.02206e-05
2.04324e-05
2.07378e-05
2.10587e-05
2.14956e-05
2.19346e-05
2.24733e-05
2.28472e-05
2.31336e-05
2.32094e-05
2.30242e-05
2.0834e-05
2.0961e-05
2.12784e-05
2.16713e-05
2.21263e-05
2.25897e-05
2.29604e-05
2.3197e-05
2.33157e-05
2.33551e-05
2.33641e-05
2.32093e-05
2.43372e-05
2.4294e-05
2.42576e-05
2.42019e-05
2.41282e-05
2.40439e-05
2.393e-05
2.38082e-05
2.3668e-05
2.35547e-05
2.34664e-05
2.34013e-05
2.47349e-05
2.45796e-05
2.43641e-05
2.41013e-05
2.37665e-05
2.34462e-05
2.30143e-05
2.26468e-05
2.22799e-05
2.20345e-05
2.1883e-05
2.20381e-05
2.24769e-05
2.19166e-05
2.13647e-05
2.08404e-05
2.038e-05
1.99347e-05
1.9643e-05
1.94082e-05
1.93417e-05
1.93288e-05
1.93088e-05
1.93916e-05
2.33971e-05
2.40308e-05
2.42973e-05
2.46218e-05
2.50309e-05
2.55994e-05
2.62704e-05
2.69949e-05
2.76461e-05
2.81799e-05
2.84939e-05
2.85594e-05
2.33577e-05
2.34051e-05
2.34339e-05
2.35234e-05
2.35742e-05
2.37224e-05
2.38562e-05
2.41192e-05
2.43554e-05
2.46879e-05
2.49093e-05
2.52443e-05
2.22504e-05
2.23687e-05
2.24615e-05
2.25672e-05
2.26669e-05
2.27785e-05
2.29146e-05
2.30434e-05
2.31984e-05
2.33102e-05
2.3436e-05
2.34716e-05
1.95714e-05
1.97403e-05
1.9938e-05
2.01282e-05
2.03613e-05
2.06025e-05
2.08888e-05
2.11794e-05
2.14076e-05
2.15899e-05
2.16532e-05
2.15283e-05
2.84952e-05
2.83378e-05
2.81302e-05
2.78605e-05
2.75263e-05
2.71309e-05
2.6681e-05
2.62134e-05
2.55103e-05
2.59493e-05
2.64363e-05
2.78686e-05
2.52431e-05
2.51189e-05
2.48858e-05
2.46066e-05
2.42774e-05
2.39068e-05
2.35181e-05
2.31247e-05
2.26684e-05
2.28957e-05
2.38509e-05
2.45615e-05
2.33733e-05
2.31845e-05
2.29396e-05
2.2651e-05
2.23301e-05
2.19709e-05
2.16068e-05
2.11944e-05
2.09372e-05
2.07018e-05
2.10206e-05
2.23098e-05
2.11789e-05
2.07979e-05
2.0428e-05
2.00863e-05
1.97916e-05
1.95587e-05
1.944e-05
1.94219e-05
1.94289e-05
1.94454e-05
1.94213e-05
1.98477e-05
1.99004e-05
1.96375e-05
1.94432e-05
1.89978e-05
1.8605e-05
1.79713e-05
1.73676e-05
1.65559e-05
1.58307e-05
1.49225e-05
1.43864e-05
1.40787e-05
1.57589e-05
1.53217e-05
1.47393e-05
1.41987e-05
1.35458e-05
1.28953e-05
1.22166e-05
1.15868e-05
1.10625e-05
1.06891e-05
1.05969e-05
1.07459e-05
1.1025e-05
1.05809e-05
1.00341e-05
9.50488e-06
8.89327e-06
8.32845e-06
7.73539e-06
7.2417e-06
6.80434e-06
6.54192e-06
6.46157e-06
6.66866e-06
7.06352e-06
6.69455e-06
6.21141e-06
5.77623e-06
5.26288e-06
4.82324e-06
4.35595e-06
4.0011e-06
3.68132e-06
3.52142e-06
3.47773e-06
3.72708e-06
1.4294e-05
1.48661e-05
1.55877e-05
1.6396e-05
1.71771e-05
1.78275e-05
1.83271e-05
1.86854e-05
1.89351e-05
1.9096e-05
1.91561e-05
1.91735e-05
1.13063e-05
1.20261e-05
1.26899e-05
1.34017e-05
1.40988e-05
1.47525e-05
1.53195e-05
1.57893e-05
1.61605e-05
1.63567e-05
1.63727e-05
1.60375e-05
7.21719e-06
8.01885e-06
8.62663e-06
9.27593e-06
9.90154e-06
1.04854e-05
1.1e-05
1.14573e-05
1.17557e-05
1.1874e-05
1.17349e-05
1.14065e-05
4.216e-06
5.01779e-06
5.4547e-06
5.93754e-06
6.40872e-06
6.85891e-06
7.2775e-06
7.61148e-06
7.81825e-06
7.8795e-06
7.70386e-06
7.44583e-06
1.91062e-05
1.89989e-05
1.8822e-05
1.85267e-05
1.81168e-05
1.7631e-05
1.7029e-05
1.63532e-05
1.56359e-05
1.49531e-05
1.43991e-05
1.41699e-05
1.56251e-05
1.51599e-05
1.46174e-05
1.40658e-05
1.34902e-05
1.28451e-05
1.22175e-05
1.15994e-05
1.10992e-05
1.07354e-05
1.06356e-05
1.07958e-05
1.0988e-05
1.05443e-05
1.00179e-05
9.48797e-06
8.89924e-06
8.32327e-06
7.75021e-06
7.2385e-06
6.81635e-06
6.53505e-06
6.46827e-06
6.66119e-06
7.06039e-06
6.69142e-06
6.21306e-06
5.77621e-06
5.2676e-06
4.82262e-06
4.36143e-06
3.99832e-06
3.6868e-06
3.51756e-06
3.48313e-06
3.7241e-06
1.43599e-05
1.49877e-05
1.5714e-05
1.65267e-05
1.72726e-05
1.78974e-05
1.83716e-05
1.8712e-05
1.89488e-05
1.91034e-05
1.91633e-05
1.91894e-05
1.13548e-05
1.20861e-05
1.27606e-05
1.34841e-05
1.41919e-05
1.4853e-05
1.54243e-05
1.58958e-05
1.62687e-05
1.64668e-05
1.64859e-05
1.61524e-05
7.22651e-06
8.02512e-06
8.63733e-06
9.29216e-06
9.92382e-06
1.05139e-05
1.10342e-05
1.14968e-05
1.17983e-05
1.19177e-05
1.17762e-05
1.14433e-05
4.2195e-06
5.02014e-06
5.45755e-06
5.94119e-06
6.41347e-06
6.86501e-06
7.28517e-06
7.62044e-06
7.82795e-06
7.88913e-06
7.7116e-06
7.45213e-06
1.91427e-05
1.90584e-05
1.88931e-05
1.86528e-05
1.82485e-05
1.77903e-05
1.71878e-05
1.65535e-05
1.57413e-05
1.49223e-05
1.42629e-05
1.40598e-05
1.57433e-05
1.52625e-05
1.47196e-05
1.41283e-05
1.35387e-05
1.2889e-05
1.22413e-05
1.16164e-05
1.10901e-05
1.07351e-05
1.06295e-05
1.08022e-05
1.10181e-05
1.05673e-05
1.00342e-05
9.49531e-06
8.90506e-06
8.32209e-06
7.74748e-06
7.23255e-06
6.81006e-06
6.52973e-06
6.46157e-06
6.6553e-06
7.064e-06
6.6937e-06
6.21324e-06
5.77567e-06
5.26644e-06
4.8209e-06
4.36041e-06
3.9971e-06
3.68681e-06
3.51739e-06
3.48376e-06
3.72429e-06
1.42726e-05
1.48782e-05
1.55835e-05
1.63524e-05
1.70589e-05
1.7647e-05
1.80986e-05
1.84208e-05
1.86435e-05
1.87883e-05
1.88452e-05
1.8869e-05
1.13468e-05
1.20771e-05
1.27433e-05
1.34553e-05
1.41489e-05
1.47939e-05
1.53492e-05
1.58059e-05
1.61678e-05
1.63614e-05
1.63835e-05
1.60775e-05
7.21971e-06
8.01686e-06
8.62796e-06
9.28108e-06
9.91039e-06
1.04975e-05
1.10145e-05
1.14731e-05
1.17722e-05
1.1891e-05
1.17531e-05
1.14242e-05
4.21984e-06
5.01993e-06
5.45689e-06
5.93995e-06
6.41156e-06
6.86234e-06
7.28162e-06
7.61618e-06
7.82328e-06
7.88455e-06
7.70827e-06
7.44948e-06
1.88403e-05
1.87656e-05
1.86479e-05
1.84464e-05
1.81555e-05
1.77117e-05
1.72287e-05
1.66443e-05
1.59899e-05
1.53432e-05
1.48834e-05
1.47808e-05
1.56814e-05
1.52259e-05
1.46841e-05
1.40919e-05
1.34535e-05
1.28291e-05
1.21661e-05
1.15431e-05
1.09943e-05
1.06165e-05
1.04752e-05
1.0631e-05
1.10028e-05
1.05554e-05
1.00233e-05
9.48828e-06
8.9e-06
8.33039e-06
7.75473e-06
7.25544e-06
6.83234e-06
6.5685e-06
6.49925e-06
6.70252e-06
7.06284e-06
6.69312e-06
6.21387e-06
5.77701e-06
5.26844e-06
4.82337e-06
4.361e-06
3.99817e-06
3.68351e-06
3.51478e-06
3.47663e-06
3.72008e-06
1.51756e-05
1.58745e-05
1.66137e-05
1.73588e-05
1.8024e-05
1.85764e-05
1.8999e-05
1.93041e-05
1.95173e-05
1.96695e-05
1.9743e-05
1.98276e-05
1.11866e-05
1.19678e-05
1.27012e-05
1.34935e-05
1.42662e-05
1.49834e-05
1.55994e-05
1.61061e-05
1.6502e-05
1.67093e-05
1.67223e-05
1.62926e-05
7.25187e-06
8.04595e-06
8.65134e-06
9.30257e-06
9.93512e-06
1.05299e-05
1.10576e-05
1.15279e-05
1.18342e-05
1.19536e-05
1.18008e-05
1.14582e-05
4.21607e-06
5.01901e-06
5.45769e-06
5.94228e-06
6.41522e-06
6.86742e-06
7.28844e-06
7.62444e-06
7.8323e-06
7.89313e-06
7.71337e-06
7.45358e-06
3.37524e-06
3.09465e-06
2.66478e-06
2.34818e-06
1.91528e-06
1.61532e-06
1.23532e-06
1.00381e-06
7.24811e-07
6.0092e-07
4.79253e-07
5.00075e-07
1.13069e-06
9.64378e-07
7.49876e-07
6.03773e-07
4.13325e-07
3.18024e-07
1.78466e-07
1.46718e-07
7.22641e-08
8.17012e-08
6.30212e-08
6.81052e-08
2.59689e-07
1.96236e-07
1.36929e-07
9.51709e-08
5.34124e-08
3.92349e-08
1.75053e-08
1.90273e-08
1.23307e-08
1.39913e-08
1.26878e-08
1.33955e-08
3.88322e-08
2.65434e-08
1.58943e-08
1.03295e-08
5.41159e-09
5.39564e-09
3.51685e-09
3.88848e-09
3.38817e-09
3.62142e-09
3.6166e-09
3.68107e-09
4.26051e-09
2.87701e-09
1.89553e-09
1.63572e-09
1.28866e-09
1.35212e-09
1.19315e-09
1.25766e-09
1.23899e-09
1.26593e-09
1.28224e-09
1.29759e-09
7.03134e-10
5.9072e-10
5.58771e-10
5.33438e-10
5.21149e-10
5.23733e-10
5.14438e-10
5.21978e-10
5.25417e-10
5.32318e-10
5.39543e-10
5.44586e-10
2.54227e-10
2.43262e-10
2.45939e-10
2.43536e-10
2.44097e-10
2.44323e-10
2.44855e-10
2.46504e-10
2.48655e-10
2.51507e-10
2.54467e-10
2.56256e-10
1.22748e-10
1.23041e-10
1.23555e-10
1.23762e-10
1.24067e-10
1.24413e-10
1.24935e-10
1.257e-10
1.26705e-10
1.27897e-10
1.29089e-10
1.29735e-10
6.57234e-11
6.60813e-11
6.63702e-11
6.65585e-11
6.67528e-11
6.69569e-11
6.72293e-11
6.75747e-11
6.80069e-11
6.8486e-11
6.89551e-11
6.9176e-11
3.74963e-11
3.76555e-11
3.77913e-11
3.78815e-11
3.79771e-11
3.80694e-11
3.81871e-11
3.83253e-11
3.84938e-11
3.86704e-11
3.88425e-11
3.89142e-11
2.35674e-11
2.36231e-11
2.36745e-11
2.37087e-11
2.37457e-11
2.37792e-11
2.38204e-11
2.38645e-11
2.39169e-11
2.39685e-11
2.40178e-11
2.40339e-11
1.78618e-11
1.78781e-11
1.78926e-11
1.79055e-11
1.79175e-11
1.79285e-11
1.79385e-11
1.79471e-11
1.79542e-11
1.79593e-11
1.79624e-11
1.79634e-11
1.97301e-06
2.3804e-06
2.62127e-06
2.92489e-06
3.23587e-06
3.55334e-06
3.82817e-06
4.03494e-06
4.14624e-06
4.14781e-06
3.93382e-06
3.74082e-06
1.01069e-06
9.47493e-07
1.02599e-06
1.14358e-06
1.27202e-06
1.40667e-06
1.52291e-06
1.60678e-06
1.64075e-06
1.58858e-06
1.46936e-06
1.32665e-06
4.67816e-07
3.04679e-07
3.31245e-07
3.61806e-07
3.95848e-07
4.31206e-07
4.587e-07
4.74104e-07
4.72028e-07
4.34844e-07
3.89952e-07
3.24236e-07
2.00174e-07
7.76221e-08
8.43191e-08
8.90162e-08
9.4432e-08
9.96832e-08
1.02482e-07
1.01805e-07
9.44692e-08
8.55965e-08
7.01015e-08
5.49475e-08
8.32736e-08
1.55956e-08
1.70967e-08
1.73249e-08
1.76469e-08
1.7754e-08
1.69422e-08
1.55887e-08
1.36506e-08
1.14953e-08
8.96771e-09
6.4195e-09
3.55058e-08
2.7075e-09
2.98399e-09
2.86206e-09
2.84369e-09
2.61254e-09
2.39474e-09
2.04391e-09
1.74357e-09
1.37443e-09
1.10215e-09
8.36991e-10
1.57229e-08
4.96849e-10
5.24981e-10
4.95832e-10
4.90223e-10
4.36427e-10
4.13738e-10
3.57832e-10
3.36518e-10
2.91191e-10
2.81771e-10
2.54608e-10
7.30343e-09
1.29278e-10
1.26037e-10
1.28779e-10
1.30217e-10
1.26143e-10
1.26522e-10
1.22751e-10
1.23779e-10
1.22429e-10
1.23583e-10
1.23776e-10
3.40489e-09
5.63896e-11
5.074e-11
5.54993e-11
5.81382e-11
5.95692e-11
6.11963e-11
6.24804e-11
6.38975e-11
6.50001e-11
6.60463e-11
6.67542e-11
1.6055e-09
3.23541e-11
3.03651e-11
3.24133e-11
3.39983e-11
3.49301e-11
3.58801e-11
3.66106e-11
3.73066e-11
3.78311e-11
3.83001e-11
3.86132e-11
6.54023e-10
2.22579e-11
2.15631e-11
2.24325e-11
2.30689e-11
2.3417e-11
2.37633e-11
2.40154e-11
2.42553e-11
2.44298e-11
2.45891e-11
2.46932e-11
4.30775e-10
2.05571e-11
1.83276e-11
1.85262e-11
1.8638e-11
1.87213e-11
1.87904e-11
1.88455e-11
1.88909e-11
1.89269e-11
1.89564e-11
1.89799e-11
3.37653e-06
3.09515e-06
2.66615e-06
2.34849e-06
1.91661e-06
1.6148e-06
1.23664e-06
1.00237e-06
7.26381e-07
5.98811e-07
4.80849e-07
4.99807e-07
1.13126e-06
9.64637e-07
7.5022e-07
6.03799e-07
4.13587e-07
3.17813e-07
1.7878e-07
1.4631e-07
7.22008e-08
8.16448e-08
6.31208e-08
6.80848e-08
2.59818e-07
1.96279e-07
1.36982e-07
9.51574e-08
5.34535e-08
3.9181e-08
1.74897e-08
1.90115e-08
1.2334e-08
1.39938e-08
1.26946e-08
1.33966e-08
3.8851e-08
2.6548e-08
1.59015e-08
1.03266e-08
5.41933e-09
5.38903e-09
3.51966e-09
3.89104e-09
3.39207e-09
3.62476e-09
3.61991e-09
3.68418e-09
4.26454e-09
2.87961e-09
1.89866e-09
1.63785e-09
1.29206e-09
1.35472e-09
1.19649e-09
1.2607e-09
1.24209e-09
1.26899e-09
1.28529e-09
1.30064e-09
7.0589e-10
5.93351e-10
5.61454e-10
5.36061e-10
5.2389e-10
5.26408e-10
5.1715e-10
5.24665e-10
5.28107e-10
5.35011e-10
5.42243e-10
5.4729e-10
2.56518e-10
2.45556e-10
2.48236e-10
2.45834e-10
2.46398e-10
2.46622e-10
2.47156e-10
2.48808e-10
2.50963e-10
2.53821e-10
2.56788e-10
2.5858e-10
1.24678e-10
1.24974e-10
1.2549e-10
1.25699e-10
1.26005e-10
1.26353e-10
1.26877e-10
1.27645e-10
1.28654e-10
1.29851e-10
1.31048e-10
1.31697e-10
6.73443e-11
6.77051e-11
6.7996e-11
6.81856e-11
6.83812e-11
6.85866e-11
6.88609e-11
6.92087e-11
6.9644e-11
7.01265e-11
7.0599e-11
7.08215e-11
3.88772e-11
3.9038e-11
3.91752e-11
3.92663e-11
3.93628e-11
3.9456e-11
3.95749e-11
3.97145e-11
3.98848e-11
4.00632e-11
4.02371e-11
4.03097e-11
2.47859e-11
2.48423e-11
2.48944e-11
2.4929e-11
2.49665e-11
2.50004e-11
2.50421e-11
2.50867e-11
2.51399e-11
2.51921e-11
2.52422e-11
2.52585e-11
1.89997e-11
1.90162e-11
1.90309e-11
1.9044e-11
1.90562e-11
1.90673e-11
1.90775e-11
1.90862e-11
1.90934e-11
1.90986e-11
1.91017e-11
1.91028e-11
1.97301e-06
2.38024e-06
2.62111e-06
2.92486e-06
3.23604e-06
3.55377e-06
3.82886e-06
4.03584e-06
4.14724e-06
4.1487e-06
3.93415e-06
3.74099e-06
1.01067e-06
9.4743e-07
1.02593e-06
1.14351e-06
1.27193e-06
1.40656e-06
1.52278e-06
1.60662e-06
1.64056e-06
1.58834e-06
1.46909e-06
1.32636e-06
4.67801e-07
3.0465e-07
3.3121e-07
3.61759e-07
3.95787e-07
4.3113e-07
4.5861e-07
4.74002e-07
4.71911e-07
4.34741e-07
3.89845e-07
3.24153e-07
2.00171e-07
7.76164e-08
8.43113e-08
8.90051e-08
9.44175e-08
9.96653e-08
1.02462e-07
1.01781e-07
9.44474e-08
8.5575e-08
7.00851e-08
5.49351e-08
8.3275e-08
1.5596e-08
1.70967e-08
1.73243e-08
1.76458e-08
1.77524e-08
1.694e-08
1.5587e-08
1.3649e-08
1.14943e-08
8.96734e-09
6.41986e-09
3.55081e-08
2.70853e-09
2.98496e-09
2.86289e-09
2.84453e-09
2.6133e-09
2.39555e-09
2.04477e-09
1.74449e-09
1.37544e-09
1.10321e-09
8.38124e-10
1.57248e-08
4.97687e-10
5.25827e-10
4.96674e-10
4.91085e-10
4.3729e-10
4.14622e-10
3.58725e-10
3.37425e-10
2.92108e-10
2.82692e-10
2.55537e-10
7.30492e-09
1.29958e-10
1.26741e-10
1.29486e-10
1.30936e-10
1.26878e-10
1.27258e-10
1.23501e-10
1.2453e-10
1.23191e-10
1.24346e-10
1.24542e-10
3.406e-09