/*--------------------------------*- C++ -*----------------------------------*\
| =========                 |                                                 |
| \\      /  F ield         | OpenFOAM: The Open Source CFD Toolbox           |
|  \\    /   O peration     | Version:  2212                                  |
|   \\  /    A nd           | Website:  www.openfoam.com                      |
|    \\/     M anipulation  |                                                 |
\*---------------------------------------------------------------------------*/
FoamFile
{
    version     2.0;
    format      ascii;
    arch        "LSB;label=32;scalar=64";
    class       volVectorField;
    location    "0.09";
    object      U;
}
// * * * * * * * * * * * * * * * * * * * * * * * * * * * * * * * * * * * * * //

dimensions      [0 1 -1 0 0 0 0];

internalField   nonuniform List<vector> 
3072
(
(1.34494 21.9121 0)
(1.79832 19.2409 0)
(3.14867 18.0065 5.98132e-19)
(4.55081 16.6306 -8.78915e-15)
(5.77555 16.0632 1.40837e-14)
(6.97373 15.5138 -7.04845e-15)
(7.75845 15.3595 -3.27103e-15)
(9.64506 17.1872 -1.55144e-14)
(17.1974 15.2937 2.5719e-14)
(28.647 14.8524 -9.6871e-15)
(32.5294 19.5715 6.57838e-15)
(35.092 21.3728 3.05469e-15)
(-4.70195 25.5618 -3.83701e-16)
(-2.67509 22.4767 -2.93264e-15)
(0.446381 22.4096 1.48476e-15)
(3.45766 21.9748 0)
(5.9099 22.1993 5.99461e-15)
(8.99901 23.6236 -9.14989e-15)
(15.2595 23.9959 0)
(24.2185 25.6566 0)
(29.9583 26.4357 0)
(32.0874 26.3403 7.58999e-18)
(32.6855 27.278 -1.3584e-14)
(33.3225 27.2339 4.40802e-18)
(-4.2574 28.7859 3.50397e-16)
(-1.72936 25.5654 0)
(2.80596 26.0187 0)
(7.08028 25.6952 -7.81126e-15)
(12.0759 26.2406 5.25413e-15)
(18.9791 27.4902 -7.93164e-15)
(26.309 28.3974 1.04874e-14)
(31.1102 28.5952 0)
(33.3542 27.9337 0)
(34.2033 26.9197 -3.78925e-15)
(34.3451 26.3515 -3.45788e-15)
(34.7722 25.6591 9.95968e-15)
(-5.76228 32.2647 -1.29347e-15)
(-1.60109 30.0017 -2.40718e-15)
(4.26574 31.1633 2.3525e-15)
(10.3643 31.0376 -2.3733e-15)
(17.3676 31.5002 9.54393e-15)
(24.2648 31.621 -9.46121e-15)
(29.3434 31.0032 -4.53546e-15)
(31.7491 29.9282 -1.24008e-14)
(32.8992 28.5389 -3.3005e-18)
(33.3804 27.3932 6.50959e-15)
(33.5676 26.4924 6.14249e-15)
(33.8828 25.6056 -5.83581e-15)
(-3.16254 34.7174 0)
(0.884372 33.9654 1.09585e-15)
(7.27318 35.3527 -2.15701e-15)
(14.0467 35.2948 4.34488e-15)
(21.0199 35.087 4.70311e-18)
(26.5128 34.0011 4.1797e-15)
(29.5932 32.4011 3.83114e-15)
(31.0104 30.6488 3.52495e-15)
(31.6788 29.0277 -6.5431e-15)
(32.0129 27.5965 6.07235e-15)
(32.2522 26.3941 -8.51861e-15)
(32.5615 25.2947 1.07465e-14)
(-2.00483 37.535 -1.10539e-15)
(2.93301 37.5679 1.00869e-15)
(9.56642 38.8837 3.96166e-15)
(16.1625 38.4899 0)
(22.2633 37.3676 -7.77197e-15)
(26.3202 35.3505 7.34863e-15)
(28.524 33.1423 0)
(29.5968 31.0934 -6.26827e-15)
(30.2404 29.23 5.82764e-15)
(30.651 27.6109 0)
(30.9833 26.2239 2.97667e-18)
(31.3355 24.9844 4.91331e-15)
(1.11385 39.6143 0)
(5.43047 40.9592 -1.85823e-15)
(11.441 41.6727 1.81195e-15)
(17.0902 40.8758 0)
(21.9318 38.8897 -3.44545e-15)
(25.0563 36.3219 5.37326e-18)
(26.9127 33.7626 6.0195e-15)
(27.9971 31.4548 5.63992e-15)
(28.7282 29.4234 -5.30807e-15)
(29.2658 27.6522 5.02976e-15)
(29.7192 26.1138 -4.78678e-15)
(30.1554 24.7487 -1.37591e-14)
(3.16957 42.0124 0)
(7.31834 43.88 1.68862e-15)
(12.3307 43.8818 -3.22421e-15)
(16.8303 42.6563 3.13118e-15)
(20.6861 40.1361 0)
(23.417 37.2468 -5.66101e-15)
(25.2259 34.4236 5.37864e-15)
(26.4239 31.8995 1.41315e-18)
(27.2966 29.6897 -9.76204e-15)
(27.9751 27.7623 -4.67429e-15)
(28.5469 26.0792 -3.04823e-18)
(29.0665 24.5885 8.67897e-15)
(5.94069 43.6967 0)
(8.87541 46.3966 -1.52501e-15)
(12.5201 45.4848 -2.83451e-15)
(15.9763 43.9656 -2.69802e-15)
(19.151 41.2348 5.18069e-15)
(21.684 38.1805 0)
(23.5493 35.1767 0)
(24.912 32.4554 0)
(25.9532 30.0571 0)
(26.7769 27.9607 4.37175e-15)
(27.4577 26.1255 -4.25038e-15)
(28.0468 24.5018 4.13789e-15)
(7.237 46.6263 0)
(9.30611 48.3533 1.33853e-15)
(11.8147 46.429 -3.91199e-18)
(14.6344 44.5047 2.39727e-15)
(17.3914 41.6901 2.3301e-15)
(19.8225 38.6283 -4.51986e-15)
(21.7917 35.6015 0)
(23.3469 32.8079 -2.11131e-18)
(24.5779 30.306 -1.26802e-14)
(25.5578 28.0945 0)
(26.3492 26.1426 8.12304e-15)
(27.0027 24.4084 -3.97987e-15)
(9.9629 46.9283 0)
(8.8725 48.0618 1.2557e-15)
(10.3285 45.3388 4.60475e-15)
(12.7031 43.1198 -4.43358e-15)
(15.2217 40.5057 -6.47086e-15)
(17.6569 37.7502 1.05154e-14)
(19.7901 35.0095 -1.86891e-18)
(21.5657 32.4129 -4.06575e-15)
(23.0106 30.0205 4.00133e-15)
(24.1667 27.8543 -7.90942e-15)
(25.083 25.9033 -1.16949e-14)
(25.8076 24.144 1.15323e-14)
(4.62185 43.8993 -6.58455e-16)
(6.48262 43.1385 -4.74059e-15)
(7.74927 40.2793 1.08844e-15)
(10.0957 38.5212 0)
(12.7001 36.787 0)
(15.2644 34.8839 3.74074e-18)
(17.5787 32.8731 1.16852e-14)
(19.5626 30.8284 7.69054e-15)
(21.2102 28.8347 0)
(22.5379 26.943 7.54577e-15)
(23.5796 25.1707 0)
(24.3737 23.5274 6.01393e-18)
(38.4138 21.7416 -2.15219e-14)
(40.4449 21.5162 9.3226e-15)
(42.1762 20.5378 -9.42521e-15)
(42.8426 19.3164 -3.19066e-15)
(42.9286 17.8518 -3.15031e-15)
(42.2574 16.1628 0)
(40.8601 14.3988 0)
(38.6259 12.5888 6.17049e-15)
(35.637 10.7872 -6.22636e-15)
(31.7878 8.7913 0)
(26.6273 5.24364 0)
(24.6835 -0.586085 -4.20596e-16)
(34.3739 27.6215 8.38316e-15)
(35.2859 27.2677 0)
(36.3991 26.5559 -1.03235e-17)
(37.3495 25.4189 4.07097e-15)
(38.1973 23.8552 2.02274e-15)
(38.5744 22.2664 8.22985e-15)
(38.4464 20.6889 -1.26536e-14)
(37.7605 19.2923 2.19859e-15)
(36.5688 18.2082 0)
(34.261 17.2622 0)
(31.0389 15.8717 0)
(31.5647 11.4768 -4.67701e-23)
(35.3063 25.0309 3.22199e-15)
(35.87 24.3076 -9.54596e-15)
(36.4898 23.4958 3.16763e-15)
(36.9814 22.6177 6.35038e-15)
(37.3021 21.7306 -6.36409e-15)
(37.3486 20.8695 0)
(37.1118 20.1489 0)
(36.5714 19.6515 -1.95963e-18)
(35.8057 19.4802 1.84253e-15)
(34.3408 19.4692 0)
(32.0141 19.303 0)
(33.6583 18.8961 0)
(34.2013 24.7793 3.69906e-18)
(34.5459 23.9701 8.23882e-15)
(34.9249 23.1478 5.41422e-15)
(35.278 22.329 -5.35394e-15)
(35.5535 21.5521 0)
(35.6964 20.8879 2.71155e-15)
(35.6732 20.4061 0)
(35.4996 20.1828 4.31706e-15)
(35.1744 20.3115 -1.41489e-15)
(34.4456 20.9492 0)
(32.4726 21.8444 -9.27516e-16)
(35.7809 22.8613 -1.19285e-15)
(32.8905 24.2876 -5.12848e-15)
(33.2576 23.3521 0)
(33.6477 22.4683 0)
(34.0213 21.6533 0)
(34.349 20.9431 0)
(34.6117 20.3869 -4.61464e-15)
(34.7848 20.0808 -1.53739e-18)
(34.8787 20.0477 -2.41511e-15)
(34.9404 20.4226 0)
(34.7917 21.3461 -1.38179e-15)
(33.5646 22.8813 8.52955e-16)
(37.7862 25.4395 1.0995e-15)
(31.7029 23.8654 -2.76357e-18)
(32.0977 22.8473 -9.11071e-15)
(32.511 21.9168 4.43464e-15)
(32.924 21.0853 2.7301e-20)
(33.3238 20.3826 2.55316e-18)
(33.7047 19.8525 6.43627e-15)
(34.0769 19.5555 -1.71214e-18)
(34.4584 19.557 -6.71983e-15)
(34.8654 19.9696 -2.39136e-15)
(35.3371 20.9473 1.3441e-15)
(34.7686 22.8994 -1.60366e-15)
(39.4964 26.3217 -5.10154e-16)
(30.5875 23.5228 1.32626e-14)
(31.0286 22.4138 4.28565e-15)
(31.4786 21.411 0)
(31.9347 20.5213 0)
(32.4001 19.7683 2.3814e-18)
(32.8872 19.1884 -3.98781e-15)
(33.4222 18.8321 5.98565e-15)
(34.0439 18.7592 -1.40684e-18)
(34.7878 19.0748 2.13089e-15)
(35.7464 19.9688 0)
(35.9614 21.9059 -2.26994e-18)
(40.944 26.2011 4.74957e-16)
(29.555 23.2523 -4.20689e-15)
(30.0298 22.044 -4.09098e-15)
(30.4992 20.9515 3.99768e-15)
(30.9736 19.9754 -3.91169e-15)
(31.471 19.1322 7.45237e-20)
(32.0207 18.4495 7.56214e-15)
(32.6691 17.9645 -3.7395e-15)
(33.4809 17.7281 1.87688e-15)
(34.5201 17.8313 0)
(35.9496 18.4744 1.06093e-15)
(36.9636 20.1864 6.42623e-16)
(41.9323 24.7093 -1.77489e-15)
(28.5703 23.0481 4.0382e-15)
(29.0522 21.7298 -3.9491e-15)
(29.5082 20.5334 -3.86437e-15)
(29.9595 19.4505 -7.57725e-15)
(30.4385 18.4885 7.42411e-15)
(30.991 17.664 -7.27508e-15)
(31.6856 16.9981 0)
(32.6164 16.5237 -1.76478e-15)
(33.886 16.3025 0)
(35.7292 16.5206 0)
(37.5885 17.7669 0)
(42.4771 21.9858 1.64603e-15)
(27.5428 22.8515 3.90365e-15)
(28.0041 21.4284 -7.66759e-15)
(28.4109 20.1287 7.53069e-15)
(28.7944 18.9337 7.38539e-15)
(29.1995 17.8424 3.61464e-15)
(29.689 16.8577 0)
(30.3546 15.9795 0)
(31.3155 15.2151 3.3781e-15)
(32.7178 14.5797 0)
(34.8758 14.2138 -8.82834e-16)
(37.3853 14.6069 5.2665e-16)
(42.3 17.6977 -2.3072e-15)
(26.3539 22.5437 -7.56461e-15)
(26.7712 21.0521 7.42376e-15)
(27.093 19.6772 -7.3048e-15)
(27.3655 18.3875 -1.79728e-14)
(27.6482 17.1781 -2.60273e-18)
(28.0175 16.0395 1.29298e-18)
(28.5884 14.9484 -3.35519e-15)
(29.4894 13.8787 -3.26331e-15)
(30.9069 12.7808 0)
(33.2152 11.7406 2.45978e-15)
(36.0322 10.839 4.80467e-16)
(41.1354 11.4594 -4.47714e-19)
(24.9028 21.9911 -5.87605e-18)
(25.2462 20.4948 0)
(25.4447 19.0943 0)
(25.5647 17.7506 3.47128e-15)
(25.6876 16.4589 1.02385e-14)
(25.9054 15.1979 -3.33851e-15)
(26.3476 13.9269 -2.15127e-18)
(27.1237 12.5889 -1.58842e-15)
(28.4416 11.057 -1.54773e-15)
(30.5671 9.31904 -1.54547e-15)
(33.8397 6.83653 0)
(38.2721 -0.67814 6.30641e-16)
(21.9121 -1.34493 -4.42523e-16)
(19.2409 -1.79831 0)
(18.0065 -3.14866 -5.98131e-19)
(16.6306 -4.55081 0)
(16.0632 -5.77555 7.04179e-15)
(15.5138 -6.97373 -7.04845e-15)
(15.3595 -7.75844 0)
(17.1872 -9.64509 -1.24117e-14)
(15.2936 -17.1975 2.25042e-14)
(14.8524 -28.6471 -1.61582e-14)
(19.5716 -32.5294 -3.29357e-15)
(21.3729 -35.092 -3.05469e-15)
(25.5618 4.70196 -1.91779e-15)
(22.4767 2.6751 -1.466e-15)
(22.4096 -0.446384 4.45188e-15)
(21.9748 -3.45767 0)
(22.1994 -5.90991 -5.99461e-15)
(23.6237 -8.99904 6.09906e-15)
(23.996 -15.2596 0)
(25.6566 -24.2186 5.6026e-15)
(26.4357 -29.9584 -1.5199e-14)
(26.3403 -32.0874 9.51479e-15)
(27.2781 -32.6855 9.05219e-15)
(27.2339 -33.3225 -1.29802e-14)
(28.7859 4.25741 3.50397e-16)
(25.5654 1.72936 0)
(26.0187 -2.80597 -2.61487e-15)
(25.6952 -7.0803 0)
(26.2407 -12.0759 0)
(27.4903 -18.9792 -5.28395e-15)
(28.3975 -26.309 2.09799e-14)
(28.5952 -31.1102 -1.49696e-14)
(27.9337 -33.3542 4.01861e-15)
(26.9197 -34.2033 0)
(26.3515 -34.345 6.92027e-15)
(25.6591 -34.7722 -3.32325e-15)
(32.2647 5.76228 -1.29454e-15)
(30.0017 1.60108 1.20417e-15)
(31.1633 -4.26578 2.35121e-15)
(31.0376 -10.3644 4.74331e-15)
(31.5003 -17.3677 -4.77101e-15)
(31.621 -24.2649 -4.72574e-15)
(31.0032 -29.3434 0)
(29.9283 -31.7491 0)
(28.5389 -32.8992 3.47997e-15)
(27.3932 -33.3804 0)
(26.4924 -33.5675 4.74458e-18)
(25.6056 -33.8828 2.916e-15)
(34.7174 3.16251 1.79295e-15)
(33.9655 -0.884408 -1.09531e-15)
(35.3528 -7.27323 -2.15701e-15)
(35.2948 -14.0467 0)
(35.087 -21.02 0)
(34.0011 -26.5128 4.18684e-15)
(32.4011 -29.5932 0)
(30.6488 -31.0103 -7.05755e-15)
(29.0278 -31.6788 -3.27103e-15)
(27.5965 -32.0128 6.07234e-15)
(26.3941 -32.2522 -8.5186e-15)
(25.2947 -32.5615 5.37112e-15)
(37.535 2.00479 -7.314e-19)
(37.5679 -2.93305 -1.00778e-15)
(38.8838 -9.56646 1.97927e-15)
(38.4899 -16.1625 2.33789e-18)
(37.3676 -22.2633 3.88606e-15)
(35.3505 -26.3202 -7.34649e-15)
(33.1423 -28.524 6.69017e-15)
(31.0934 -29.5968 6.32713e-18)
(29.23 -30.2403 0)
(27.6109 -30.651 0)
(26.2239 -30.9833 1.03096e-14)
(24.9844 -31.3355 7.28968e-19)
(39.6143 -1.1139 -1.02798e-15)
(40.9592 -5.43051 -9.29773e-16)
(41.6727 -11.441 0)
(40.8757 -17.0902 -3.57196e-15)
(38.8896 -21.9318 3.44731e-15)
(36.3219 -25.0563 9.69062e-15)
(33.7626 -26.9127 6.02553e-15)
(31.4548 -27.997 8.40032e-18)
(29.4234 -28.7282 -1.0622e-14)
(27.6522 -29.2658 5.02593e-15)
(26.1138 -29.7192 4.79391e-15)
(24.7487 -30.1554 3.05199e-18)
(42.0123 -3.1696 -6.41739e-19)
(43.8799 -7.31837 1.68862e-15)
(43.8818 -12.3307 0)
(42.6563 -16.8303 -3.13118e-15)
(40.1361 -20.6861 -2.9859e-15)
(37.2468 -23.417 5.77637e-18)
(34.4236 -25.2259 -1.07503e-14)
(31.8995 -26.4239 4.3109e-18)
(29.6897 -27.2966 -2.76853e-18)
(27.7623 -27.975 4.67693e-15)
(26.0792 -28.5469 -4.48912e-15)
(24.5885 -29.0665 2.45307e-18)
(43.6967 -5.94071 -4.46236e-16)
(46.3965 -8.87543 7.60858e-16)
(45.4848 -12.5201 -4.25046e-15)
(43.9655 -15.9763 2.69801e-15)
(41.2348 -19.151 0)
(38.1805 -21.684 0)
(35.1766 -23.5493 4.81962e-15)
(32.4554 -24.912 9.32104e-15)
(30.0571 -25.9532 -4.51018e-15)
(27.9607 -26.7768 -4.37174e-15)
(26.1255 -27.4577 -4.24777e-15)
(24.5018 -28.0468 0)
(46.6263 -7.23701 -8.27682e-16)
(48.3532 -9.30612 2.00813e-15)
(46.4289 -11.8147 4.97246e-15)
(44.5047 -14.6344 0)
(41.69 -17.3914 4.65091e-15)
(38.6282 -19.8225 0)
(35.6015 -21.7916 3.21275e-18)
(32.8079 -23.3469 -4.31043e-15)
(30.306 -24.5779 4.22994e-15)
(28.0945 -25.5578 0)
(26.1426 -26.3492 0)
(24.4084 -27.0027 -7.96341e-15)
(46.9283 -9.9629 2.19568e-23)
(48.0618 -8.87251 1.2557e-15)
(45.3388 -10.3285 3.51683e-18)
(43.1198 -12.7031 -4.43978e-15)
(40.5056 -15.2217 -2.15467e-15)
(37.7502 -17.6569 -2.103e-15)
(35.0095 -19.7901 -4.12515e-15)
(32.4129 -21.5657 -1.21838e-14)
(30.0205 -23.0106 -4.00133e-15)
(27.8543 -24.1667 -7.90942e-15)
(25.9033 -25.083 7.80248e-15)
(24.144 -25.8076 7.68235e-15)
(43.8993 -4.62184 -1.31645e-15)
(43.1385 -6.48263 -5.91882e-16)
(40.2793 -7.74928 2.94564e-18)
(38.5212 -10.0957 4.19812e-15)
(36.787 -12.7001 0)
(34.8839 -15.2644 -3.96558e-15)
(32.8731 -17.5787 3.89275e-15)
(30.8284 -19.5626 3.84058e-15)
(28.8347 -21.2102 -1.1431e-14)
(26.943 -22.5379 7.54576e-15)
(25.1707 -23.5796 -7.47414e-15)
(23.5274 -24.3737 0)
(21.7417 -38.4138 9.21831e-15)
(21.5162 -40.4449 -2.48588e-14)
(20.5378 -42.1762 6.26356e-15)
(19.3164 -42.8426 1.5899e-14)
(17.8518 -42.9286 -1.57284e-14)
(16.1628 -42.2574 3.11424e-15)
(14.3988 -40.8601 -1.73988e-18)
(12.5888 -38.6259 -3.08355e-15)
(10.7872 -35.637 -6.22636e-15)
(8.7913 -31.7878 0)
(5.24365 -26.6273 0)
(-0.586083 -24.6835 -6.3102e-16)
(27.6215 -34.3739 -3.64572e-19)
(27.2677 -35.2859 8.19504e-15)
(26.5559 -36.3991 -1.03235e-17)
(25.4189 -37.3495 0)
(23.8552 -38.1973 6.07768e-15)
(22.2664 -38.5745 0)
(20.6889 -38.4464 4.21653e-15)
(19.2923 -37.7605 6.59855e-15)
(18.2082 -36.5688 -4.71074e-15)
(17.2622 -34.261 0)
(15.8717 -31.0389 0)
(11.4769 -31.5647 -1.19743e-19)
(25.0309 -35.3063 3.21779e-15)
(24.3076 -35.87 -3.17847e-15)
(23.4958 -36.4898 3.16762e-15)
(22.6177 -36.9814 0)
(21.7306 -37.3021 -3.18013e-15)
(20.8695 -37.3486 6.51864e-15)
(20.1489 -37.1118 -8.46522e-15)
(19.6515 -36.5714 -8.84723e-15)
(19.4802 -35.8057 5.52579e-15)
(19.4692 -34.3408 0)
(19.303 -32.0141 1.03727e-15)
(18.8961 -33.6583 -3.8211e-20)
(24.7793 -34.2013 2.80504e-15)
(23.9701 -34.5459 -5.494e-15)
(23.1478 -34.9249 5.41422e-15)
(22.329 -35.278 -5.35394e-15)
(21.5521 -35.5535 0)
(20.8879 -35.6964 2.71155e-15)
(20.4061 -35.6732 2.75314e-15)
(20.1828 -35.4996 1.43751e-15)
(20.3115 -35.1744 -2.82999e-15)
(20.9492 -34.4456 0)
(21.8444 -32.4726 -9.25647e-16)
(22.8613 -35.7809 1.49146e-15)
(24.2876 -32.8905 5.13255e-15)
(23.3521 -33.2575 -2.47727e-15)
(22.4683 -33.6477 0)
(21.6533 -34.0213 0)
(20.9431 -34.349 2.35748e-15)
(20.3869 -34.6117 -2.30585e-15)
(20.0808 -34.7848 -2.78855e-18)
(20.0477 -34.8787 0)
(20.4226 -34.9404 -1.27554e-15)
(21.3461 -34.7917 1.38179e-15)
(22.8813 -33.5646 -1.7068e-15)
(25.4395 -37.7862 0)
(23.8654 -31.7029 -9.41988e-15)
(22.8473 -32.0977 4.55385e-15)
(21.9168 -32.511 8.87191e-15)
(21.0853 -32.924 2.73017e-20)
(20.3826 -33.3238 -1.07512e-14)
(19.8525 -33.7047 -4.29445e-15)
(19.5555 -34.0769 -2.68158e-18)
(19.557 -34.4584 0)
(19.9696 -34.8654 0)
(20.9473 -35.3371 -1.3441e-15)
(22.8994 -34.7686 -8.02899e-16)
(26.3217 -39.4964 5.10154e-16)
(23.5228 -30.5875 4.42197e-15)
(22.4138 -31.0285 -8.57384e-15)
(21.411 -31.4786 -4.1729e-15)
(20.5213 -31.9347 -2.33079e-18)
(19.7683 -32.4001 4.02271e-15)
(19.1884 -32.8872 3.98506e-15)
(18.8321 -33.4222 1.99543e-15)
(18.7592 -34.0439 2.02959e-15)
(19.0748 -34.7878 -2.1325e-15)
(19.9688 -35.7464 0)
(21.9059 -35.9614 1.43024e-15)
(26.2011 -40.944 -9.50814e-16)
(23.2523 -29.555 0)
(22.044 -30.0298 4.09097e-15)
(20.9515 -30.4992 0)
(19.9754 -30.9736 -2.22041e-18)
(19.1322 -31.471 7.45224e-20)
(18.4495 -32.0207 7.56213e-15)
(17.9645 -32.6691 -1.86868e-15)
(17.7282 -33.4809 -3.75271e-15)
(17.8313 -34.5201 -1.93766e-15)
(18.4744 -35.9496 1.06093e-15)
(20.1864 -36.9636 -1.93226e-15)
(24.7093 -41.9323 8.86142e-16)
(23.0481 -28.5703 4.0382e-15)
(21.7298 -29.0522 -3.94909e-15)
(20.5334 -29.5082 -3.8683e-15)
(19.4505 -29.9595 3.78953e-15)
(18.4885 -30.4385 3.71204e-15)
(17.664 -30.991 -1.09154e-14)
(16.9981 -31.6857 0)
(16.5237 -32.6164 1.76478e-15)
(16.3025 -33.886 1.78746e-15)
(16.5206 -35.7292 0)
(17.7669 -37.5885 1.74586e-15)
(21.9858 -42.4771 -4.12205e-16)
(22.8515 -27.5428 0)
(21.4284 -28.0041 -7.66757e-15)
(20.1287 -28.4109 -3.76885e-15)
(18.9337 -28.7944 -7.38214e-15)
(17.8424 -29.1995 3.61463e-15)
(16.8577 -29.689 3.53184e-15)
(15.9796 -30.3546 0)
(15.2151 -31.3155 0)
(14.5797 -32.7178 0)
(14.2138 -34.8758 0)
(14.6069 -37.3853 -5.26637e-16)
(17.6977 -42.3 -7.68987e-16)
(22.5437 -26.3539 3.78067e-15)
(21.0521 -26.7712 3.71014e-15)
(19.6772 -27.093 1.46158e-14)
(18.3875 -27.3655 3.59744e-15)
(17.1781 -27.6482 1.40922e-14)
(16.0395 -28.0175 -3.44016e-15)
(14.9484 -28.5884 -3.35519e-15)
(13.8787 -29.4894 0)
(12.7808 -30.9069 -3.20442e-15)
(11.7406 -33.2152 -1.63979e-15)
(10.839 -36.0322 -9.61325e-16)
(11.4594 -41.1354 0)
(21.9911 -24.9028 0)
(20.4949 -25.2462 0)
(19.0943 -25.4447 -1.40965e-14)
(17.7506 -25.5648 -1.0419e-14)
(16.459 -25.6877 -3.41102e-15)
(15.1979 -25.9054 0)
(13.9269 -26.3476 3.26015e-15)
(12.5889 -27.1237 0)
(11.057 -28.4416 -1.94893e-18)
(9.31904 -30.5671 1.54547e-15)
(6.83654 -33.8397 4.27363e-16)
(-0.678131 -38.2721 -1.88117e-19)
(-1.34492 -21.9121 -2.21261e-16)
(-1.7983 -19.2409 -3.45526e-15)
(-3.14866 -18.0065 3.49529e-15)
(-4.55081 -16.6306 -3.51687e-15)
(-5.77555 -16.0632 0)
(-6.97374 -15.5138 3.52556e-15)
(-7.75844 -15.3595 0)
(-9.64509 -17.1872 3.10459e-15)
(-17.1975 -15.2936 -9.64095e-15)
(-28.647 -14.8524 9.69422e-15)
(-32.5294 -19.5716 1.9715e-14)
(-35.092 -21.3729 -6.08251e-15)
(4.70197 -25.5618 0)
(2.6751 -22.4767 -2.93264e-15)
(-0.446384 -22.4096 2.96832e-15)
(-3.45767 -21.9748 2.95881e-15)
(-5.90991 -22.1994 -5.99461e-15)
(-8.99904 -23.6237 -1.67725e-19)
(-15.2596 -23.996 -6.03758e-15)
(-24.2185 -25.6566 -1.39988e-14)
(-29.9583 -26.4357 1.51973e-14)
(-32.0874 -26.3403 -4.75314e-15)
(-32.6855 -27.2781 8.19841e-18)
(-33.3225 -27.2339 5.4625e-18)
(4.25741 -28.7859 0)
(1.72936 -25.5654 0)
(-2.80597 -26.0187 0)
(-7.08031 -25.6952 -2.60454e-15)
(-12.076 -26.2407 0)
(-18.9792 -27.4903 -2.64769e-15)
(-26.309 -28.3975 5.242e-15)
(-31.1102 -28.5952 9.98639e-15)
(-33.3542 -27.9337 -4.02038e-15)
(-34.2033 -26.9197 -7.57529e-15)
(-34.345 -26.3515 -1.03782e-14)
(-34.7722 -25.6591 9.95967e-15)
(5.76228 -32.2647 0)
(1.60106 -30.0017 -1.20417e-15)
(-4.26579 -31.1633 2.35387e-15)
(-10.3644 -31.0376 2.37001e-15)
(-17.3677 -31.5003 0)
(-24.2649 -31.621 -9.46886e-15)
(-29.3434 -31.0032 9.06056e-15)
(-31.749 -29.9283 0)
(-32.8991 -28.5389 6.95004e-15)
(-33.3804 -27.3932 -9.76242e-15)
(-33.5675 -26.4924 6.13773e-15)
(-33.8828 -25.6056 5.05726e-18)
(3.1625 -34.7174 -7.12986e-23)
(-0.884421 -33.9655 2.19314e-15)
(-7.27324 -35.3528 3.02469e-18)
(-14.0467 -35.2949 0)
(-21.02 -35.087 -4.32569e-15)
(-26.5128 -34.0011 8.3616e-15)
(-29.5932 -32.4011 0)
(-31.0103 -30.6488 -3.53076e-15)
(-31.6788 -29.0278 -3.27487e-15)
(-32.0128 -27.5965 6.07234e-15)
(-32.2522 -26.3941 0)
(-32.5615 -25.2947 -5.36761e-15)
(2.00477 -37.535 5.5224e-16)
(-2.93307 -37.5679 2.07764e-18)
(-9.56647 -38.8838 -1.97926e-15)
(-16.1625 -38.4899 -7.93884e-15)
(-22.2633 -37.3676 -2.25104e-18)
(-26.3202 -35.3505 7.34861e-15)
(-28.524 -33.1423 0)
(-29.5968 -31.0934 9.40275e-15)
(-30.2403 -29.23 -5.82966e-15)
(-30.651 -27.6109 5.45666e-15)
(-30.9833 -26.2239 2.97667e-18)
(-31.3355 -24.9844 -7.28966e-19)
(-1.11391 -39.6143 -1.54202e-15)
(-5.43053 -40.9592 -9.26906e-16)
(-11.441 -41.6727 0)
(-17.0902 -40.8757 7.14806e-15)
(-21.9318 -38.8896 -1.03362e-14)
(-25.0563 -36.3219 -1.63767e-18)
(-26.9127 -33.7626 -1.2045e-14)
(-27.997 -31.4548 5.28415e-18)
(-28.7281 -29.4234 -5.30806e-15)
(-29.2658 -27.6522 -5.02975e-15)
(-29.7192 -26.1138 4.79391e-15)
(-30.1554 -24.7487 -4.58709e-15)
(-3.16962 -42.0123 1.4338e-15)
(-7.31839 -43.8799 -8.44948e-16)
(-12.3307 -43.8818 0)
(-16.8303 -42.6563 3.13118e-15)
(-20.6861 -40.1361 2.98432e-15)
(-23.417 -37.2468 2.82891e-15)
(-25.2259 -34.4236 -4.95882e-18)
(-26.4239 -31.8995 -1.41314e-18)
(-27.2965 -29.6897 -4.88511e-15)
(-27.975 -27.7623 -6.54922e-18)
(-28.5469 -26.0792 2.54503e-18)
(-29.0665 -24.5885 0)
(-5.94072 -43.6967 4.45486e-16)
(-8.87543 -46.3965 0)
(-12.5201 -45.4848 0)
(-15.9763 -43.9655 -2.69801e-15)
(-19.151 -41.2348 2.58636e-15)
(-21.684 -38.1805 -4.9898e-15)
(-23.5493 -35.1767 0)
(-24.912 -32.4554 4.65932e-15)
(-25.9531 -30.0571 -2.45254e-18)
(-26.7768 -27.9607 4.37174e-15)
(-27.4576 -26.1255 -4.25248e-15)
(-28.0468 -24.5018 8.28024e-15)
(-7.23702 -46.6263 -3.52641e-19)
(-9.30612 -48.3532 -6.69596e-16)
(-11.8147 -46.4289 -2.48819e-15)
(-14.6344 -44.5047 -4.79192e-15)
(-17.3914 -41.69 0)
(-19.8225 -38.6282 4.51386e-15)
(-21.7916 -35.6015 -8.81956e-15)
(-23.3469 -32.8079 4.31119e-15)
(-24.5779 -30.306 4.22994e-15)
(-25.5578 -28.0945 0)
(-26.3492 -26.1426 -4.06564e-15)
(-27.0026 -24.4084 -7.95553e-15)
(-9.9629 -46.9283 -7.37983e-16)
(-8.87251 -48.0618 6.27113e-16)
(-10.3285 -45.3387 2.30062e-15)
(-12.7031 -43.1198 2.21482e-15)
(-15.2217 -40.5056 -5.12094e-19)
(-17.6569 -37.7502 -6.31232e-15)
(-19.7901 -35.0095 8.24351e-15)
(-21.5657 -32.4129 1.62416e-14)
(-23.0106 -30.0205 -1.2012e-14)
(-24.1667 -27.8543 -7.90941e-15)
(-25.0829 -25.9033 7.79528e-15)
(-25.8075 -24.144 0)
(-4.62184 -43.8993 1.3152e-15)
(-6.48263 -43.1385 5.9444e-16)
(-7.74928 -40.2792 1.08549e-15)
(-10.0957 -38.5212 4.20298e-15)
(-12.7001 -36.787 0)
(-15.2644 -34.8839 3.96183e-15)
(-17.5787 -32.8731 -7.79241e-15)
(-19.5626 -30.8284 -3.8434e-15)
(-21.2102 -28.8347 -3.80935e-15)
(-22.5379 -26.943 7.54576e-15)
(-23.5796 -25.1707 3.74156e-15)
(-24.3737 -23.5274 1.10994e-14)
(-38.4137 -21.7417 -3.07311e-15)
(-40.4449 -21.5162 3.11894e-15)
(-42.1762 -20.5378 -9.41485e-15)
(-42.8426 -19.3164 2.86147e-14)
(-42.9285 -17.8518 -1.25781e-14)
(-42.2573 -16.1628 0)
(-40.8601 -14.3988 -6.18197e-15)
(-38.6259 -12.5888 4.62445e-15)
(-35.637 -10.7872 0)
(-31.7878 -8.79129 1.07438e-18)
(-26.6273 -5.24364 0)
(-24.6835 0.586088 4.20596e-16)
(-34.3738 -27.6215 -1.67772e-14)
(-35.2859 -27.2677 8.2054e-15)
(-36.3991 -26.5559 8.09619e-15)
(-37.3495 -25.4189 -4.07579e-15)
(-38.1973 -23.8552 0)
(-38.5744 -22.2664 0)
(-38.4464 -20.6889 4.21841e-15)
(-37.7605 -19.2923 -4.39988e-15)
(-36.5688 -18.2082 0)
(-34.261 -17.2622 1.22216e-15)
(-31.0389 -15.8716 -1.41356e-19)
(-31.5647 -11.4768 -1.57001e-15)
(-35.3062 -25.0309 3.2224e-15)
(-35.87 -24.3076 -6.36312e-15)
(-36.4898 -23.4958 0)
(-36.9813 -22.6177 -6.35042e-15)
(-37.3021 -21.7306 -6.36482e-15)
(-37.3486 -20.8695 1.30366e-14)
(-37.1118 -20.1489 -1.01592e-14)
(-36.5714 -19.6515 0)
(-35.8057 -19.4802 0)
(-34.3408 -19.4692 0)
(-32.0141 -19.303 -1.03674e-15)
(-33.6583 -18.8961 0)
(-34.2013 -24.7793 -2.80504e-15)
(-34.5459 -23.9701 -4.16235e-18)
(-34.9249 -23.1478 0)
(-35.278 -22.329 -3.96995e-18)
(-35.5535 -21.5521 0)
(-35.6964 -20.8879 0)
(-35.6731 -20.4061 2.75493e-15)
(-35.4996 -20.1828 -2.87723e-15)
(-35.1744 -20.3115 2.83149e-15)
(-34.4456 -20.9492 0)
(-32.4726 -21.8444 -9.27516e-16)
(-35.7809 -22.8612 1.19285e-15)
(-32.8905 -24.2876 1.02683e-14)
(-33.2575 -23.3521 -2.47727e-15)
(-33.6477 -22.4683 4.82253e-15)
(-34.0213 -21.6533 2.36949e-15)
(-34.349 -20.9431 -7.06945e-15)
(-34.6117 -20.3869 0)
(-34.7848 -20.0808 -2.25831e-15)
(-34.8787 -20.0477 0)
(-34.9404 -20.4226 0)
(-34.7917 -21.3461 1.38179e-15)
(-33.5646 -22.8813 3.76567e-19)
(-37.7862 -25.4395 1.40192e-18)
(-31.7029 -23.8654 -4.70724e-15)
(-32.0977 -22.8473 -2.99884e-18)
(-32.511 -21.9168 0)
(-32.924 -21.0853 0)
(-33.3238 -20.3826 -6.45389e-15)
(-33.7047 -19.8525 4.29197e-15)
(-34.0769 -19.5555 4.34057e-15)
(-34.4584 -19.557 2.23962e-15)
(-34.8654 -19.9695 -4.78146e-15)
(-35.3371 -20.9473 -1.3441e-15)
(-34.7686 -22.8993 0)
(-39.4964 -26.3217 5.10154e-16)
(-30.5875 -23.5228 -8.8464e-15)
(-31.0285 -22.4138 4.28046e-15)
(-31.4786 -21.411 4.17551e-15)
(-31.9347 -20.5213 2.31601e-18)
(-32.4001 -19.7683 -4.72939e-18)
(-32.8872 -19.1884 -3.99e-15)
(-33.4222 -18.8321 -5.98452e-15)
(-34.0439 -18.7592 -2.03103e-15)
(-34.7878 -19.0748 2.13089e-15)
(-35.7464 -19.9688 0)
(-35.9614 -21.9059 2.14761e-15)
(-40.944 -26.2011 -1.42642e-15)
(-29.5549 -23.2524 8.41159e-15)
(-30.0298 -22.044 -4.09787e-15)
(-30.4992 -20.9515 -3.99768e-15)
(-30.9736 -19.9754 -7.82115e-15)
(-31.471 -19.1322 7.67723e-15)
(-32.0207 -18.4495 -2.13056e-18)
(-32.6691 -17.9645 1.12251e-14)
(-33.4809 -17.7281 1.8746e-15)
(-34.5201 -17.8313 1.93766e-15)
(-35.9496 -18.4744 0)
(-36.9636 -20.1864 -1.28726e-15)
(-41.9323 -24.7093 4.43868e-16)
(-28.5703 -23.0481 0)
(-29.0522 -21.7298 3.94699e-15)
(-29.5082 -20.5334 3.86437e-15)
(-29.9595 -19.4505 -3.7877e-15)
(-30.4385 -18.4885 -1.7593e-18)
(-30.991 -17.664 -3.64029e-15)
(-31.6856 -16.9981 -3.56975e-15)
(-32.6164 -16.5237 0)
(-33.886 -16.3025 -1.78746e-15)
(-35.7292 -16.5206 -9.62678e-16)
(-37.5885 -17.7669 2.90906e-15)
(-42.4771 -21.9858 -4.10085e-16)
(-27.5428 -22.8515 0)
(-28.0041 -21.4284 0)
(-28.4109 -20.1287 0)
(-28.7944 -18.9337 -1.10791e-14)
(-29.1995 -17.8424 7.22903e-15)
(-29.689 -16.8577 7.06542e-15)
(-30.3546 -15.9795 0)
(-31.3155 -15.2151 -3.37809e-15)
(-32.7178 -14.5796 0)
(-34.8758 -14.2138 -1.76618e-15)
(-37.3853 -14.6069 -5.26637e-16)
(-42.3 -17.6977 -7.66961e-16)
(-26.3539 -22.5437 0)
(-26.7712 -21.0521 0)
(-27.093 -19.6772 7.31097e-15)
(-27.3655 -18.3875 1.07807e-14)
(-27.6482 -17.1781 4.16574e-18)
(-28.0175 -16.0395 3.44145e-15)
(-28.5884 -14.9484 -1.67709e-15)
(-29.4894 -13.8787 4.89562e-15)
(-30.9069 -12.7808 3.20442e-15)
(-33.2152 -11.7405 1.63815e-15)
(-36.0322 -10.839 -9.61326e-16)
(-41.1354 -11.4594 -1.43392e-15)
(-24.9028 -21.9911 0)
(-25.2461 -20.4948 0)
(-25.4447 -19.0943 -7.04559e-15)
(-25.5647 -17.7506 3.47634e-15)
(-25.6876 -16.4589 -3.41102e-15)
(-25.9054 -15.1979 -3.3385e-15)
(-26.3476 -13.9269 3.2623e-15)
(-27.1237 -12.5889 0)
(-28.4416 -11.057 -3.09465e-15)
(-30.5671 -9.31903 -1.54639e-15)
(-33.8397 -6.83652 1.28518e-15)
(-38.2722 0.678143 1.13776e-19)
(-21.9121 1.34493 -2.01722e-19)
(-19.2409 1.79831 0)
(-18.0065 3.14866 0)
(-16.6306 4.55081 -7.03131e-15)
(-16.0632 5.77555 1.05641e-14)
(-15.5138 6.97373 0)
(-15.3595 7.75845 0)
(-17.1872 9.64507 3.10459e-15)
(-15.2936 17.1975 3.21996e-15)
(-14.8524 28.647 9.70315e-15)
(-19.5715 32.5294 1.64214e-14)
(-21.3728 35.092 -3.03758e-15)
(-25.5618 -4.70196 -2.96005e-19)
(-22.4767 -2.6751 0)
(-22.4096 0.446381 0)
(-21.9748 3.45766 -2.96055e-15)
(-22.1994 5.90991 5.99661e-15)
(-23.6237 8.99902 -1.82986e-14)
(-23.996 15.2595 1.20677e-14)
(-25.6566 24.2185 2.80489e-15)
(-26.4357 29.9583 -5.05955e-15)
(-26.3403 32.0874 7.59e-18)
(-27.278 32.6855 0)
(-27.2339 33.3225 -8.64383e-15)
(-28.7859 -4.25741 3.50397e-16)
(-25.5654 -1.72936 0)
(-26.0187 2.80596 0)
(-25.6952 7.08029 -2.01246e-18)
(-26.2406 12.0759 2.40191e-18)
(-27.4903 18.9791 -5.28934e-15)
(-28.3975 26.309 0)
(-28.5952 31.1102 -1.4975e-14)
(-27.9337 33.3542 1.20649e-14)
(-26.9197 34.2033 -3.78925e-15)
(-26.3515 34.345 -6.92011e-15)
(-25.6591 34.7722 9.95967e-15)
(-32.2647 -5.76228 1.29454e-15)
(-30.0017 -1.60109 1.20417e-15)
(-31.1633 4.26576 0)
(-31.0376 10.3644 2.37001e-15)
(-31.5003 17.3676 -2.38438e-15)
(-31.621 24.2648 4.72575e-15)
(-31.0032 29.3434 0)
(-29.9282 31.7491 -4.13516e-15)
(-28.5389 32.8991 -1.043e-14)
(-27.3932 33.3804 6.50959e-15)
(-26.4924 33.5675 6.13774e-15)
(-25.6056 33.8828 -1.16767e-14)
(-34.7174 -3.16252 -5.9703e-16)
(-33.9655 0.884394 -1.09584e-15)
(-35.3528 7.27321 2.15701e-15)
(-35.2948 14.0467 0)
(-35.087 21.0199 -8.6538e-15)
(-34.0011 26.5128 8.36875e-15)
(-32.4011 29.5932 3.83764e-15)
(-30.6488 31.0103 3.52495e-15)
(-29.0278 31.6788 0)
(-27.5965 32.0128 0)
(-26.3941 32.2522 0)
(-25.2947 32.5615 -7.75039e-18)
(-37.535 -2.0048 7.314e-19)
(-37.5679 2.93304 0)
(-38.8838 9.56644 -1.97927e-15)
(-38.4899 16.1625 3.97059e-15)
(-37.3676 22.2633 3.88582e-15)
(-35.3505 26.3202 -7.34669e-15)
(-33.1423 28.524 3.34516e-15)
(-31.0934 29.5968 -1.25401e-14)
(-29.23 30.2403 -2.03837e-18)
(-27.6109 30.651 -4.6027e-18)
(-26.2239 30.9833 2.97667e-18)
(-24.9844 31.3355 1.47207e-14)
(-39.6143 1.11388 5.14716e-16)
(-40.9592 5.4305 1.85823e-15)
(-41.6727 11.441 -3.61799e-15)
(-40.8758 17.0902 -3.57196e-15)
(-38.8896 21.9318 -6.88681e-15)
(-36.3219 25.0563 -3.23553e-15)
(-33.7626 26.9127 -6.02222e-15)
(-31.4548 27.997 1.12725e-14)
(-29.4234 28.7282 0)
(-27.6522 29.2658 1.00527e-14)
(-26.1138 29.7192 -1.43622e-14)
(-24.7487 30.1554 4.59033e-15)
(-42.0123 3.16959 -9.55242e-16)
(-43.8799 7.31837 -2.53383e-15)
(-43.8818 12.3307 4.83746e-15)
(-42.6563 16.8303 0)
(-40.1361 20.6861 -2.99079e-15)
(-37.2468 23.417 5.661e-15)
(-34.4236 25.2259 -2.86226e-18)
(-31.8995 26.4239 1.41314e-18)
(-29.6897 27.2966 -4.8805e-15)
(-27.7623 27.975 -9.34804e-15)
(-26.0792 28.5469 4.49147e-15)
(-24.5885 29.0665 -4.33965e-15)
(-43.6967 5.9407 -8.90973e-16)
(-46.3965 8.87542 0)
(-45.4848 12.5201 0)
(-43.9655 15.9763 0)
(-41.2348 19.151 2.58637e-15)
(-38.1805 21.684 0)
(-35.1767 23.5493 -3.95232e-18)
(-32.4554 24.912 9.3177e-15)
(-30.0571 25.9532 2.95267e-18)
(-27.9607 26.7768 4.37174e-15)
(-26.1255 27.4577 -4.25037e-15)
(-24.5018 28.0468 1.24181e-14)
(-46.6263 7.23701 -1.65572e-15)
(-48.3532 9.30612 3.35004e-15)
(-46.4289 11.8147 -1.24292e-15)
(-44.5047 14.6344 0)
(-41.69 17.3914 0)
(-38.6283 19.8225 0)
(-35.6015 21.7916 0)
(-32.8079 23.3469 4.31388e-15)
(-30.306 24.5779 -1.69031e-14)
(-28.0945 25.5578 -8.2866e-15)
(-26.1426 26.3492 8.12303e-15)
(-24.4084 27.0026 3.98775e-15)
(-46.9283 9.9629 -7.37983e-16)
(-48.0618 8.8725 -1.88144e-15)
(-45.3388 10.3285 -1.15306e-15)
(-43.1198 12.7031 0)
(-40.5056 15.2217 0)
(-37.7502 17.6569 4.20864e-15)
(-35.0095 19.7901 -8.24843e-15)
(-32.4129 21.5657 1.62436e-14)
(-30.0205 23.0106 1.20158e-14)
(-27.8543 24.1667 7.90195e-15)
(-25.9033 25.0829 -7.79529e-15)
(-24.144 25.8075 6.94067e-18)
(-43.8993 4.62184 -1.24243e-18)
(-43.1385 6.48263 0)
(-40.2793 7.74928 2.16954e-15)
(-38.5212 10.0957 -6.30358e-15)
(-36.787 12.7001 6.10056e-15)
(-34.8839 15.2644 3.74073e-18)
(-32.8731 17.5787 3.89275e-15)
(-30.8284 19.5626 -3.8434e-15)