/*--------------------------------*- C++ -*----------------------------------*\
| =========                 |                                                 |
| \\      /  F ield         | OpenFOAM: The Open Source CFD Toolbox           |
|  \\    /   O peration     | Version:  2212                                  |
|   \\  /    A nd           | Website:  www.openfoam.com                      |
|    \\/     M anipulation  |                                                 |
\*---------------------------------------------------------------------------*/
FoamFile
{
    version     2.0;
    format      ascii;
    arch        "LSB;label=32;scalar=64";
    class       volVectorField;
    location    "0.09";
    object      U;
}
// * * * * * * * * * * * * * * * * * * * * * * * * * * * * * * * * * * * * * //

dimensions      [0 1 -1 0 0 0 0];

internalField   nonuniform List<vector> 
3072
(
(0.350468 21.7238 0)
(0.950177 18.6827 0)
(2.6547 17.1407 4.52732e-19)
(4.06005 16.1419 -7.60192e-15)
(5.39762 15.4679 1.21912e-14)
(6.24525 15.4554 -5.69686e-15)
(7.74291 17.3978 -2.70729e-15)
(14.758 16.9266 -1.3932e-14)
(27.57 15.6962 2.27032e-14)
(32.7577 21.5169 -8.48261e-15)
(35.1084 23.5911 5.5945e-15)
(38.7246 25.4283 2.65534e-15)
(-5.71106 25.6493 -3.32134e-16)
(-3.18816 22.139 -2.54512e-15)
(0.740992 22.5785 1.30181e-15)
(3.7674 22.2791 0)
(7.23717 24.1684 5.29815e-15)
(13.989 24.9697 -7.851e-15)
(23.2078 27.4035 0)
(29.5545 29.0549 0)
(32.1669 28.962 0)
(32.9098 29.9001 7.62459e-18)
(33.3678 30.0674 -1.17222e-14)
(34.7903 30.2254 5.20737e-18)
(-5.46501 29.1692 3.06667e-16)
(-1.58246 26.1784 0)
(4.254 27.4716 0)
(10.3352 27.683 -6.88091e-15)
(18.1117 29.54 4.60987e-15)
(25.5049 30.7974 -6.82339e-15)
(30.3214 31.1803 8.63702e-15)
(32.9265 30.6483 0)
(34.1346 29.513 0)
(34.4475 28.852 -2.98143e-15)
(34.9182 28.1796 -2.84325e-15)
(35.6115 27.5206 8.32458e-15)
(-5.33161 32.7672 -1.1239e-15)
(0.303348 31.4636 -2.08833e-15)
(7.85475 33.327 2.05825e-15)
(15.5011 33.6301 -2.07291e-15)
(22.7791 34.17 8.15304e-15)
(27.8337 33.5353 -7.74717e-15)
(30.6119 32.4976 -3.37495e-15)
(32.2964 31.0317 -8.93956e-15)
(33.0611 29.7225 -2.21686e-18)
(33.3586 28.7004 5.24798e-15)
(33.7155 27.7622 4.97078e-15)
(34.0876 26.852 -4.81587e-15)
(-1.52452 34.8681 0)
(3.652 35.3856 9.45409e-16)
(11.1526 36.8601 -1.85679e-15)
(18.4031 36.7277 3.68844e-15)
(24.3304 36.0344 4.13648e-18)
(27.7779 34.5017 3.19433e-15)
(29.8513 32.7866 2.8778e-15)
(30.8569 31.0972 2.77166e-15)
(31.3577 29.5395 -5.18486e-15)
(31.6756 28.2262 4.83527e-15)
(32.0247 27.0562 -6.83955e-15)
(32.4054 25.9778 8.69409e-15)
(0.496517 37.2045 -9.51467e-16)
(6.14062 38.151 8.61409e-16)
(13.1226 39.0715 3.3334e-15)
(19.4208 38.3882 0)
(24.1014 36.8795 -6.20312e-15)
(26.797 34.8655 5.60682e-15)
(28.2978 32.8695 0)
(29.1589 30.9327 -4.97308e-15)
(29.6876 29.2063 4.64738e-15)
(30.0724 27.7105 0)
(30.4467 26.3851 2.41705e-18)
(30.8353 25.1897 3.99399e-15)
(3.49777 39.1214 0)
(8.32154 40.7494 -1.58626e-15)
(14.3368 40.8496 1.51754e-15)
(19.4441 39.7079 0)
(23.0895 37.6181 -2.75326e-15)
(25.2456 35.2632 4.17929e-18)
(26.5717 32.9732 4.80829e-15)
(27.4116 30.8535 4.51713e-15)
(27.9972 28.9622 -4.2642e-15)
(28.4585 27.2972 4.05639e-15)
(28.883 25.821 -3.88012e-15)
(29.3004 24.5001 -1.12166e-14)
(5.24041 41.4836 0)
(9.67431 43.2728 1.4571e-15)
(14.6605 42.5811 -2.7417e-15)
(18.6857 41.0087 2.60755e-15)
(21.6176 38.4672 0)
(23.5256 35.8027 -4.61732e-15)
(24.7993 33.2489 4.36807e-15)
(25.6869 30.915 9.10488e-19)
(26.3496 28.8287 -7.91352e-15)
(26.8826 26.9813 -3.79703e-15)
(27.3513 25.3431 -2.30324e-18)
(27.7888 23.8841 7.10534e-15)
(7.57274 43.0476 0)
(10.7191 45.6437 -1.34052e-15)
(14.3521 44.0793 -2.47111e-15)
(17.4278 42.1736 -2.31765e-15)
(19.856 39.3167 4.39022e-15)
(21.6513 36.3874 0)
(22.96 33.5842 0)
(23.9337 31.023 0)
(24.6813 28.7282 0)
(25.2776 26.6904 3.59711e-15)
(25.7789 24.8835 -3.50096e-15)
(26.2221 23.279 3.41644e-15)
(8.16942 46.1923 0)
(10.69 47.7823 1.17875e-15)
(13.1789 45.1445 -3.36899e-18)
(15.6594 42.7064 2.0949e-15)
(17.7753 39.5876 2.00805e-15)
(19.5203 36.4715 -3.85637e-15)
(20.8979 33.5126 0)
(21.9747 30.8019 -1.69933e-18)
(22.815 28.3627 -1.0607e-14)
(23.477 26.1876 0)
(24.0118 24.2542 6.76401e-15)
(24.4598 22.537 -3.31448e-15)
(10.9421 46.8176 0)
(9.88471 47.4525 1.09119e-15)
(11.1146 44.0215 4.05059e-15)
(13.1587 41.1694 -3.89081e-15)
(15.1176 38.093 -5.63084e-15)
(16.8938 35.0922 9.08329e-15)
(18.3867 32.2624 -1.50508e-18)
(19.5961 29.6457 -3.46322e-15)
(20.5525 27.2608 3.38691e-15)
(21.3009 25.108 -6.6599e-15)
(21.8883 23.1748 -9.81452e-15)
(22.3583 21.4441 9.66241e-15)
(4.77851 43.2859 -5.72927e-16)
(6.67446 41.9765 -4.13838e-15)
(7.80532 38.3798 9.51212e-16)
(9.80723 35.9404 0)
(11.8719 33.6646 0)
(13.7859 31.4087 2.84271e-18)
(15.424 29.1953 1.00889e-14)
(16.7716 27.0555 6.59838e-15)
(17.8467 25.0274 0)
(18.6887 23.1372 6.39868e-15)
(19.3407 21.3959 0)
(19.8487 19.8046 3.77014e-18)
(41.3282 25.0056 -1.86557e-14)
(43.7468 24.6364 8.05616e-15)
(45.0498 23.141 -8.14087e-15)
(45.9015 21.7266 -2.73327e-15)
(45.7232 19.789 -2.70244e-15)
(45.0869 17.8701 0)
(43.394 15.766 0)
(41.0427 13.7524 5.35271e-15)
(37.6739 11.7957 -5.40056e-15)
(33.407 9.69792 0)
(27.7871 6.354 0)
(25.3103 -0.101087 -3.70548e-16)
(35.7845 30.0912 6.9667e-15)
(37.0393 29.5513 0)
(38.1786 28.5514 -9.75768e-18)
(39.2588 27.1799 3.37915e-15)
(40.0579 25.4983 1.69577e-15)
(40.393 23.769 6.91159e-15)
(40.1541 22.0918 -1.06919e-14)
(39.3324 20.6166 1.87222e-15)
(37.9472 19.4792 0)
(35.2636 18.5665 0)
(31.8655 17.4509 0)
(31.8721 14.2484 -4.03553e-23)
(36.2256 26.8032 2.72215e-15)
(36.9219 25.9918 -7.94668e-15)
(37.5865 25.0637 2.61844e-15)
(38.1326 24.0779 5.24852e-15)
(38.4479 23.0917 -5.30816e-15)
(38.4657 22.1843 0)
(38.1467 21.4422 0)
(37.4877 20.9653 -1.59799e-18)
(36.5235 20.8889 1.6021e-15)
(34.8491 21.1021 0)
(32.2694 21.1648 0)
(33.5782 21.0268 0)
(34.4691 25.9922 3.17078e-18)
(34.9526 25.1442 6.82127e-15)
(35.4348 24.2774 4.46505e-15)
(35.855 23.4246 -4.43543e-15)
(36.1498 22.6434 0)
(36.277 22.0098 2.25452e-15)
(36.2103 21.6135 0)
(35.9494 21.5021 3.74975e-15)
(35.5628 21.7949 -1.32733e-15)
(34.7617 22.6376 0)
(32.7208 23.8892 -7.75664e-16)
(35.7468 25.8094 -1.0325e-15)
(32.8209 24.9852 -4.17906e-15)
(33.2743 24.0533 0)
(33.7192 23.1811 0)
(34.1243 22.3942 0)
(34.4615 21.7362 0)
(34.7147 21.2745 -3.81636e-15)
(34.8647 21.0922 -1.31317e-18)
(34.9498 21.2226 -2.1516e-15)
(34.9546 21.8232 0)
(34.8496 23.0056 -1.17505e-15)
(33.5225 24.9074 7.31559e-16)
(37.5254 28.0046 9.52544e-16)
(31.2487 24.107 -2.22976e-18)
(31.6851 23.1204 -7.50605e-15)
(32.1243 22.2339 3.67985e-15)
(32.5525 21.4685 6.44163e-20)
(32.9606 20.8608 2.13981e-18)
(33.3505 20.4622 5.45005e-15)
(33.7396 20.3331 -1.37088e-18)
(34.1485 20.5416 -5.74106e-15)
(34.596 21.2063 -2.04753e-15)
(35.1284 22.5034 1.15179e-15)
(34.6769 24.8799 -1.38164e-15)
(39.2778 29.049 -4.41438e-16)
(29.7254 23.3152 1.08788e-14)
(30.1625 22.2532 3.53926e-15)
(30.6092 21.3164 0)
(31.0675 20.5202 0)
(31.5459 19.8928 2.02887e-18)
(32.0628 19.4751 -3.39087e-15)
(32.6496 19.3172 5.11941e-15)
(33.3459 19.4806 -1.17812e-18)
(34.1873 20.0733 1.83463e-15)
(35.2761 21.2879 0)
(35.6593 23.6142 -2.09834e-18)
(40.5878 28.5389 4.11169e-16)
(28.2151 22.583 -3.46225e-15)
(28.6436 21.4263 -3.38805e-15)
(29.0855 20.4119 3.33457e-15)
(29.5563 19.5485 -3.28843e-15)
(30.0796 18.8548 -6.3293e-20)
(30.6897 18.3595 6.45988e-15)
(31.4354 18.0993 -3.21798e-15)
(32.3814 18.1253 1.62417e-15)
(33.5902 18.5281 0)
(35.2347 19.5112 9.20619e-16)
(36.5081 21.6364 5.57334e-16)
(41.5948 26.8619 -1.53558e-15)
(26.6343 21.8541 3.34479e-15)
(27.0378 20.5921 -3.28483e-15)
(27.4547 19.485 -3.23321e-15)
(27.9122 18.5334 -6.3866e-15)
(28.4462 17.7445 6.31096e-15)
(29.1046 17.133 -6.24072e-15)
(29.9541 16.7175 0)
(31.0848 16.5295 -1.53873e-15)
(32.5939 16.6266 0)
(34.7254 17.1888 0)
(36.9079 18.8137 0)
(42.0388 23.6482 1.42784e-15)
(24.8543 21.0136 3.25588e-15)
(25.2256 19.6644 -6.41173e-15)
(25.6051 18.4757 6.32211e-15)
(26.0288 17.4398 6.2416e-15)
(26.5426 16.5527 3.0834e-15)
(27.204 15.8137 0)
(28.0946 15.2181 0)
(29.3252 14.7699 2.96886e-15)
(31.0332 14.4781 0)
(33.5502 14.472 -7.78937e-16)
(36.448 15.2111 4.62976e-16)
(41.7734 18.87 -2.00681e-15)
(22.7489 19.9 -6.34617e-15)
(23.096 18.5243 6.25478e-15)
(23.4386 17.3013 -6.17615e-15)
(23.8188 16.2178 -1.52682e-14)
(24.2901 15.2597 -1.76682e-18)
(24.9148 14.4117 1.09571e-18)
(25.7858 13.6462 -2.94601e-15)
(27.0145 12.9333 -2.89567e-15)
(28.7778 12.2089 0)
(31.4858 11.5444 2.19645e-15)
(34.7134 10.9379 4.25314e-16)
(40.3323 12.0493 -3.275e-19)
(20.2517 18.3625 -3.64207e-18)
(20.5882 17.0586 0)
(20.9024 15.8804 0)
(21.2397 14.8139 2.9832e-15)
(21.6585 13.8412 8.86311e-15)
(22.2174 12.9364 -2.92411e-15)
(23.0176 12.0479 -1.59748e-18)
(24.1496 11.1173 -1.42383e-15)
(25.8144 9.9948 -1.39674e-15)
(28.3169 8.64273 -1.39588e-15)
(32.0499 6.35828 0)
(37.2679 -1.4808 5.50969e-16)
(21.7775 -0.641898 -3.82644e-16)
(18.8651 -1.15759 0)
(17.4051 -2.78047 -4.76469e-19)
(16.2892 -4.259 0)
(15.7274 -5.52405 6.10785e-15)
(15.4238 -6.62951 -5.75204e-15)
(16.6946 -7.46944 0)
(17.7392 -12.2252 -1.11758e-14)
(14.6451 -24.8839 1.99459e-14)
(19.6492 -31.9774 -1.41784e-14)
(22.5029 -34.0219 -2.83927e-15)
(24.2129 -37.7031 -2.66962e-15)
(25.591 5.38539 -1.66361e-15)
(22.1892 3.03743 -1.27715e-15)
(22.543 -0.693379 3.91229e-15)
(22.0339 -3.74885 0)
(23.495 -6.68018 -5.29336e-15)
(24.5839 -11.9749 5.29767e-15)
(25.9931 -21.0462 0)
(28.3437 -28.3138 4.58929e-15)
(28.0642 -31.6357 -1.28936e-14)
(28.9258 -32.7122 7.98645e-15)
(29.2323 -32.9316 8.06723e-15)
(29.3111 -34.3387 -1.11359e-14)
(28.9727 5.15283 3.06633e-16)
(25.9345 1.6862 0)
(26.9466 -3.72711 -2.28621e-15)
(26.995 -9.15267 0)
(28.3755 -16.1175 0)
(29.9411 -23.9174 -4.60776e-15)
(30.3508 -29.3169 1.7709e-14)
(30.219 -32.3794 -1.09555e-14)
(28.9282 -33.7808 3.4377e-15)
(28.1968 -34.2139 0)
(27.5327 -34.5693 5.90698e-15)
(26.8321 -35.2405 -2.84149e-15)
(32.6343 5.59587 -1.12725e-15)
(31.0086 0.396574 1.04922e-15)
(32.6817 -6.68416 2.06419e-15)
(32.8887 -13.9944 4.16511e-15)
(33.4626 -21.408 -4.13822e-15)
(33.08 -27.0726 -3.98488e-15)
(32.0402 -30.2161 0)
(30.7079 -31.918 0)
(29.3009 -32.8137 2.91779e-15)
(28.2263 -33.1558 0)
(27.273 -33.4678 4.09553e-18)
(26.3446 -33.8614 2.47672e-15)
(34.7845 2.04055 1.54957e-15)
(35.0501 -2.79015 -9.52596e-16)
(36.5446 -10.0535 -1.87834e-15)
(36.4767 -17.2698 0)
(35.91 -23.5606 0)
(34.439 -27.3857 3.33725e-15)
(32.6545 -29.5189 0)
(30.9256 -30.6319 -5.74857e-15)
(29.2995 -31.1801 -2.70621e-15)
(27.9172 -31.5092 5.05155e-15)
(26.7048 -31.8366 -7.14675e-15)
(25.5904 -32.2089 4.54015e-15)
(37.3059 0.272675 -6.3067e-19)
(38.0508 -5.21559 -8.70694e-16)
(39.1313 -12.1563 1.69621e-15)
(38.5324 -18.5686 1.81783e-18)
(37.0724 -23.5628 3.20327e-15)
(35.002 -26.4503 -5.82987e-15)
(32.9304 -28.0277 5.54706e-15)
(30.9222 -28.9601 4.87746e-18)
(29.1109 -29.5295 0)
(27.5387 -29.9306 0)
(26.1566 -30.3043 8.68819e-15)
(24.9136 -30.6962 4.79739e-19)
(39.2642 -2.85442 -8.88098e-16)
(40.8551 -7.52312 -8.02762e-16)
(41.1365 -13.5588 0)
(40.0778 -18.7635 -2.98689e-15)
(37.9845 -22.6152 2.83328e-15)
(35.5566 -24.9084 7.95101e-15)
(33.1874 -26.3161 4.97242e-15)
(30.985 -27.2251 6.67489e-18)
(29.0066 -27.8556 -8.85934e-15)
(27.2625 -28.3465 4.21533e-15)
(25.7198 -28.7909 4.04533e-15)
(24.3412 -29.2298 2.39924e-18)
(41.6471 -4.66958 -5.39698e-19)
(43.4784 -9.02167 1.47005e-15)
(42.9705 -14.022 0)
(41.4915 -18.1004 -2.65435e-15)
(38.9541 -21.1748 -2.50554e-15)
(36.2349 -23.1994 4.49427e-18)
(33.6088 -24.5602 -8.98606e-15)
(31.192 -25.5214 3.358e-18)
(29.0189 -26.2412 -2.29925e-18)
(27.0893 -26.8195 3.94079e-15)
(25.3767 -27.3273 -3.80199e-15)
(23.8494 -27.8045 2.04092e-18)
(43.2015 -7.18458 -3.87426e-16)
(45.8984 -10.2324 6.7228e-16)
(44.507 -13.8494 -3.74397e-15)
(42.7194 -16.9479 2.35137e-15)
(39.8977 -19.4673 0)
(36.944 -21.3579 0)
(34.084 -22.7517 4.10956e-15)
(31.4481 -23.8039 7.92746e-15)
(29.0694 -24.621 -3.83625e-15)
(26.9473 -25.2789 -3.72417e-15)
(25.0594 -25.8375 -3.62949e-15)
(23.3765 -26.338 0)
(46.3752 -7.93356 -7.20257e-16)
(48.0258 -10.3569 1.77782e-15)
(45.5797 -12.8014 4.44534e-15)
(43.2788 -15.2778 0)
(40.2255 -17.446 4.09074e-15)
(37.1154 -19.2641 0)
(34.124 -20.7241 2.56033e-18)
(31.3568 -21.8866 -3.73382e-15)
(28.8448 -22.8101 3.65399e-15)
(26.5887 -23.5511 0)
(24.5712 -24.1609 0)
(22.768 -24.6825 -6.88338e-15)
(46.8872 -10.8541 1.91248e-23)
(47.7381 -9.68252 1.10381e-15)
(44.4605 -10.8839 3.08549e-18)
(41.7402 -12.8867 -3.96495e-15)
(38.7419 -14.8484 -1.91724e-15)
(35.7769 -16.6781 -1.86332e-15)
(32.9462 -18.2529 -3.64048e-15)
(30.3003 -19.556 -1.0701e-14)
(27.8626 -20.6087 -3.49888e-15)
(25.6388 -21.451 -6.89043e-15)
(23.6224 -22.1288 6.78252e-15)
(21.8007 -22.6864 6.67654e-15)
(43.5121 -4.80918 -1.15054e-15)
(42.3185 -6.63429 -5.2052e-16)
(38.8583 -7.63047 2.60792e-18)
(36.4918 -9.57605 3.74956e-15)
(34.3039 -11.6456 0)
(32.1132 -13.6189 -3.54083e-15)
(29.933 -15.3462 3.46656e-15)
(27.7931 -16.7953 3.40505e-15)
(25.7333 -17.9749 -1.00807e-14)
(23.7834 -18.9189 6.62554e-15)
(21.9607 -19.6707 -6.54113e-15)
(20.2735 -20.2741 0)
(24.0963 -40.3322 8.04495e-15)
(23.7093 -42.7844 -2.16233e-14)
(22.4128 -44.1566 5.44424e-15)
(21.0187 -45.0444 1.37452e-14)
(19.2582 -44.9181 -1.3613e-14)
(17.3841 -44.3393 2.70193e-15)
(15.4174 -42.7249 -1.3883e-18)
(13.4473 -40.4506 -2.68853e-15)
(11.5718 -37.1856 -5.42547e-15)
(9.50966 -33.0444 0)
(6.17478 -27.5168 0)
(-0.17844 -25.1422 -5.54918e-16)
(29.3261 -35.2431 -1.0916e-19)
(28.8254 -36.4611 7.0253e-15)
(27.9133 -37.5674 -9.69729e-18)
(26.6127 -38.633 0)
(24.9692 -39.4643 5.25968e-15)
(23.28 -39.8388 0)
(21.6404 -39.653 3.65872e-15)
(20.2016 -38.8881 5.74536e-15)
(19.1057 -37.5712 -4.09846e-15)
(18.2188 -34.9991 0)
(17.0726 -31.6449 0)
(13.5994 -31.7503 -4.64459e-20)
(26.133 -35.836 2.81384e-15)
(25.3415 -36.5178 -2.7549e-15)
(24.4437 -37.1662 2.72387e-15)
(23.4881 -37.7179 0)
(22.536 -38.0503 -2.75477e-15)
(21.6586 -38.0954 5.64815e-15)
(20.9473 -37.8125 -7.35044e-15)
(20.4926 -37.1974 -7.77425e-15)
(20.4353 -36.3008 4.89051e-15)
(20.6439 -34.7134 0)
(20.6771 -32.1681 8.99556e-16)
(20.4909 -33.5688 1.0233e-20)
(25.4735 -34.1991 2.4368e-15)
(24.6241 -34.6525 -4.74976e-15)
(23.7632 -35.1242 4.65735e-15)
(22.9156 -35.5509 -4.62068e-15)
(22.1373 -35.8658 0)
(21.5034 -36.0239 2.32538e-15)
(21.1152 -35.9945 2.4001e-15)
(20.9939 -35.7819 1.28641e-15)
(21.283 -35.4377 -2.69287e-15)
(22.1361 -34.6862 0)
(23.3482 -32.6315 -7.95118e-16)
(25.0882 -35.7431 1.29652e-15)
(24.5726 -32.6059 4.36808e-15)
(23.6219 -33.0584 -2.12219e-15)
(22.7337 -33.5137 0)
(21.9323 -33.9387 0)
(21.2601 -34.3032 2.04886e-15)
(20.7814 -34.5907 -1.9844e-15)
(20.589 -34.7722 -2.50251e-18)
(20.7065 -34.894 0)
(21.2996 -34.9341 -1.19321e-15)
(22.4865 -34.8502 1.20052e-15)
(24.359 -33.5347 -1.49288e-15)
(27.3811 -37.604 0)
(23.7943 -31.1131 -8.04204e-15)
(22.7765 -31.5648 3.9127e-15)
(21.8603 -32.0278 7.67178e-15)
(21.0661 -32.486 4.90413e-20)
(20.4299 -32.9279 -9.41075e-15)
(20.0031 -33.352 -3.77766e-15)
(19.8484 -33.7733 -2.35999e-18)
(20.0335 -34.21 0)
(20.6814 -34.6742 0)
(21.966 -35.2284 -1.18241e-15)
(24.3307 -34.7174 -7.0329e-16)
(28.434 -39.3829 4.43266e-16)
(23.1067 -29.6791 3.77991e-15)
(22 -30.1478 -7.37728e-15)
(21.0203 -30.6313 -3.61509e-15)
(20.1824 -31.1292 -1.91076e-18)
(19.5141 -31.6474 3.53138e-15)
(19.0572 -32.2012 3.51844e-15)
(18.8648 -32.8188 1.7696e-15)
(19.0003 -33.5363 1.80426e-15)
(19.5766 -34.3829 -1.89496e-15)
(20.7887 -35.4698 0)
(23.1216 -35.7831 1.25748e-15)
(28.0684 -40.756 -8.26378e-16)
(22.4859 -28.273 0)
(21.2709 -28.7477 3.52652e-15)
(20.2008 -29.238 0)
(19.2833 -29.7569 -1.89853e-18)
(18.5373 -30.3249 -4.77188e-20)
(17.9928 -30.9732 6.7035e-15)
(17.6901 -31.7468 -1.66652e-15)
(17.6847 -32.7064 -3.35983e-15)
(18.0732 -33.9065 -1.73534e-15)
(19.0621 -35.5263 9.45787e-16)
(21.2048 -36.7051 -1.70669e-15)
(26.5262 -41.794 7.7044e-16)
(21.8761 -26.8087 3.47852e-15)
(20.542 -27.2718 -3.41636e-15)
(19.366 -27.7478 -3.36443e-15)
(18.348 -28.2606 3.3184e-15)
(17.496 -28.843 3.27595e-15)
(16.826 -29.5394 -9.71118e-15)
(16.3612 -30.4123 0)
(16.1396 -31.5483 1.59146e-15)
(16.2273 -33.0352 1.61406e-15)
(16.8121 -35.1211 0)
(18.4937 -37.2065 1.55177e-15)
(23.5157 -42.2721 -3.59253e-16)
(21.1574 -25.1504 0)
(19.723 -25.5941 -6.66155e-15)
(18.4527 -26.0425 -3.2858e-15)
(17.3389 -26.5277 -6.47662e-15)
(16.3782 -27.0921 3.19842e-15)
(15.5726 -27.7898 3.15537e-15)
(14.922 -28.6972 0)
(14.4379 -29.9214 0)
(14.1417 -31.5904 0)
(14.1693 -34.0394 0)
(15.0129 -36.8407 -4.71039e-16)
(18.9677 -42.0258 -6.71294e-16)
(20.1595 -23.1635 3.29127e-15)
(18.6874 -23.5949 3.24317e-15)
(17.3716 -24.0151 1.28135e-14)
(16.2002 -24.4614 3.16607e-15)
(15.1599 -24.9839 1.25108e-14)
(14.2386 -25.6412 -3.0895e-15)
(13.4139 -26.519 -3.04559e-15)
(12.6649 -27.7251 0)
(11.941 -29.4267 -2.94775e-15)
(11.3228 -32.0425 -1.50151e-15)
(10.8631 -35.1539 -8.64422e-16)
(12.402 -40.5926 0)
(18.7241 -20.7725 0)
(17.3129 -21.2022 0)
(16.0325 -21.6012 -1.24823e-14)
(14.8707 -22.0083 -9.25505e-15)
(13.8103 -22.4768 -3.04979e-15)
(12.8277 -23.0591 0)
(11.8809 -23.8483 2.98307e-15)
(10.917 -24.9281 0)
(9.79996 -26.4915 -1.66223e-18)
(8.50232 -28.8646 1.42936e-15)
(6.41655 -32.4592 3.86565e-16)
(-0.911428 -37.3874 -1.63703e-19)
(-0.350495 -21.7238 -1.90873e-16)
(-0.950188 -18.6827 -2.982e-15)
(-2.6547 -17.1407 3.04024e-15)
(-4.06006 -16.1419 -3.04174e-15)
(-5.39762 -15.4679 0)
(-6.24527 -15.4553 2.84972e-15)
(-7.74285 -17.3977 0)
(-14.7577 -16.9266 2.78828e-15)
(-27.5699 -15.6961 -8.50786e-15)
(-32.7577 -21.5167 8.49067e-15)
(-35.1084 -23.591 1.67617e-14)
(-38.7245 -25.4283 -5.28157e-15)
(5.71104 -25.6493 0)
(3.18816 -22.139 -2.54512e-15)
(-0.740986 -22.5784 2.60267e-15)
(-3.7674 -22.279 2.60829e-15)
(-7.23711 -24.1683 -5.29815e-15)
(-13.9888 -24.9696 -7.79293e-19)
(-23.2077 -27.4033 -4.91559e-15)
(-29.5545 -29.0548 -1.11164e-14)
(-32.1669 -28.9619 1.29746e-14)
(-32.9098 -29.9001 -4.04313e-15)
(-33.3678 -30.0674 8.81754e-18)
(-34.7903 -30.2254 5.5221e-18)
(5.465 -29.1692 0)
(1.5825 -26.1783 0)
(-4.25391 -27.4715 0)
(-10.3351 -27.6829 -2.29454e-15)
(-18.1115 -29.5398 0)
(-25.5048 -30.7973 -2.27859e-15)
(-30.3214 -31.1802 4.31685e-15)
(-32.9266 -30.6482 7.05548e-15)
(-34.1347 -29.513 -3.30477e-15)
(-34.4475 -28.852 -5.96049e-15)
(-34.9183 -28.1796 -8.534e-15)
(-35.6115 -27.5205 8.3246e-15)
(5.33169 -32.7671 0)
(-0.303223 -31.4635 -1.04469e-15)
(-7.85459 -33.3269 2.05989e-15)
(-15.5009 -33.63 2.06876e-15)
(-22.779 -34.1699 0)
(-27.8337 -33.5352 -7.75441e-15)
(-30.612 -32.4976 6.74203e-15)
(-32.2964 -31.0317 0)
(-33.0612 -29.7224 5.59661e-15)
(-33.3587 -28.7004 -7.87026e-15)
(-33.7155 -27.7622 4.96684e-15)
(-34.0876 -26.852 4.13304e-18)
(1.52465 -34.8681 -6.1451e-23)
(-3.65184 -35.3855 1.89226e-15)
(-11.1524 -36.86 3.02422e-18)
(-18.403 -36.7277 0)
(-24.3304 -36.0344 -3.54931e-15)
(-27.778 -34.5017 6.39064e-15)
(-29.8514 -32.7866 0)
(-30.857 -31.0972 -2.77626e-15)
(-31.3578 -29.5395 -2.59499e-15)
(-31.6757 -28.2262 4.83529e-15)
(-32.0248 -27.0561 0)
(-32.4054 -25.9778 -4.34238e-15)
(-0.496345 -37.2045 4.75401e-16)
(-6.14046 -38.1509 1.8983e-18)
(-13.1225 -39.0715 -1.66535e-15)
(-19.4208 -38.3882 -6.53606e-15)
(-24.1015 -36.8795 -1.79888e-18)
(-26.7971 -34.8655 5.60684e-15)
(-28.2979 -32.8695 0)
(-29.159 -30.9327 7.46012e-15)
(-29.6877 -29.2063 -4.64869e-15)
(-30.0724 -27.7105 4.37849e-15)
(-30.4467 -26.3851 2.41706e-18)
(-30.8353 -25.1897 -4.48424e-19)
(-3.49762 -39.1215 -1.32822e-15)
(-8.32141 -40.7495 -7.91372e-16)
(-14.3367 -40.8497 0)
(-19.4441 -39.7079 5.83571e-15)
(-23.0896 -37.6181 -8.2597e-15)
(-25.2457 -35.2632 -1.29446e-18)
(-26.5718 -32.9732 -9.62106e-15)
(-27.4117 -30.8535 3.9418e-18)
(-27.9972 -28.9622 -4.26422e-15)
(-28.4585 -27.2972 -4.05641e-15)
(-28.883 -25.821 3.88563e-15)
(-29.3005 -24.5001 -3.73951e-15)
(-5.24028 -41.4836 1.23806e-15)
(-9.67422 -43.2729 -7.28995e-16)
(-14.6604 -42.5811 0)
(-18.6857 -41.0088 2.60756e-15)
(-21.6176 -38.4673 2.45068e-15)
(-23.5256 -35.8027 2.30745e-15)
(-24.7994 -33.249 -3.72654e-18)
(-25.687 -30.915 -9.10494e-19)
(-26.3496 -28.8287 -3.95974e-15)
(-26.8826 -26.9813 -4.87493e-18)
(-27.3513 -25.3431 2.0528e-18)
(-27.7888 -23.8841 0)
(-7.57266 -43.0476 3.86162e-16)
(-10.7191 -45.6437 0)
(-14.3521 -44.0794 0)
(-17.4279 -42.1737 -2.31766e-15)
(-19.8561 -39.3167 2.19194e-15)
(-21.6513 -36.3874 -4.17963e-15)
(-22.96 -33.5843 0)
(-23.9337 -31.023 3.84479e-15)
(-24.6814 -28.7282 -1.99332e-18)
(-25.2776 -26.6904 3.59712e-15)
(-25.7789 -24.8835 -3.50261e-15)
(-26.2222 -23.279 6.83608e-15)
(-8.16938 -46.1924 -2.40574e-19)
(-10.6899 -47.7824 -5.89591e-16)
(-13.1789 -45.1446 -2.20523e-15)
(-15.6594 -42.7064 -4.18767e-15)
(-17.7753 -39.5876 0)
(-19.5203 -36.4715 3.85159e-15)
(-20.898 -33.5126 -7.4635e-15)
(-21.9747 -30.8019 3.62393e-15)
(-22.815 -28.3627 3.53795e-15)
(-23.477 -26.1876 0)
(-24.0118 -24.2542 -3.38505e-15)
(-24.4598 -22.537 -6.62597e-15)
(-10.9421 -46.8177 -6.40968e-16)
(-9.88469 -47.4526 5.44902e-16)
(-11.1146 -44.0215 2.02378e-15)
(-13.1587 -41.1695 1.94375e-15)
(-15.1176 -38.093 -3.9551e-19)
(-16.8938 -35.0923 -5.45232e-15)
(-18.3868 -32.2624 7.07345e-15)
(-19.5961 -29.6457 1.38359e-14)
(-20.5526 -27.2608 -1.01672e-14)
(-21.3009 -25.1081 -6.65992e-15)
(-21.8883 -23.1748 6.54217e-15)
(-22.3583 -21.4441 0)
(-4.77851 -43.286 1.14429e-15)
(-6.67445 -41.9765 5.19053e-16)
(-7.80532 -38.3798 9.48673e-16)
(-9.80723 -35.9405 3.67266e-15)
(-11.872 -33.6646 0)
(-13.7859 -31.4088 3.43901e-15)
(-15.4241 -29.1953 -6.72764e-15)
(-16.7716 -27.0555 -3.29796e-15)
(-17.8468 -25.0274 -3.24747e-15)
(-18.6887 -23.1372 6.39869e-15)
(-19.3407 -21.3959 3.15981e-15)
(-19.8487 -19.8046 9.35702e-15)
(-41.3282 -25.0055 -2.66352e-15)
(-43.7468 -24.6363 2.69715e-15)
(-45.0498 -23.141 -8.13107e-15)
(-45.9015 -21.7266 2.45e-14)
(-45.7232 -19.7889 -1.07867e-14)
(-45.0869 -17.8701 0)
(-43.394 -15.766 -5.33424e-15)
(-41.0427 -13.7524 4.01063e-15)
(-37.6739 -11.7957 0)
(-33.407 -9.69793 9.14364e-19)
(-27.7871 -6.354 0)
(-25.3103 0.101087 3.70548e-16)
(-35.7845 -30.0912 -1.3945e-14)
(-37.0393 -29.5513 6.81926e-15)
(-38.1787 -28.5514 6.75724e-15)
(-39.2588 -27.1799 -3.38377e-15)
(-40.0579 -25.4983 0)
(-40.393 -23.769 0)
(-40.1541 -22.0918 3.56466e-15)
(-39.3324 -20.6166 -3.74678e-15)
(-37.9472 -19.4792 0)
(-35.2636 -18.5665 1.034e-15)
(-31.8656 -17.4509 -2.47823e-19)
(-31.8721 -14.2484 -1.35476e-15)
(-36.2256 -26.8032 2.72256e-15)
(-36.9219 -25.9917 -5.29702e-15)
(-37.5865 -25.0637 0)
(-38.1326 -24.0779 -5.24849e-15)
(-38.4479 -23.0917 -5.30909e-15)
(-38.4657 -22.1843 1.08952e-14)
(-38.1467 -21.4422 -8.53049e-15)
(-37.4877 -20.9653 0)
(-36.5235 -20.8889 0)
(-34.8491 -21.1021 0)
(-32.2694 -21.1648 -8.85691e-16)
(-33.5782 -21.0268 0)
(-34.4691 -25.9922 -2.34481e-15)
(-34.9526 -25.1442 -3.62173e-18)
(-35.4348 -24.2774 0)
(-35.855 -23.4246 -3.39982e-18)
(-36.1498 -22.6434 0)
(-36.277 -22.0098 0)
(-36.2103 -21.6135 2.33396e-15)
(-35.9494 -21.5021 -2.49918e-15)
(-35.5628 -21.7949 2.65617e-15)
(-34.7617 -22.6376 0)
(-32.7208 -23.8892 -7.75664e-16)
(-35.7468 -25.8094 1.0325e-15)
(-32.8209 -24.9852 8.3675e-15)
(-33.2743 -24.0533 -2.03333e-15)
(-33.7192 -23.1811 3.98704e-15)
(-34.1243 -22.3942 1.97317e-15)
(-34.4615 -21.7362 -5.89561e-15)
(-34.7147 -21.2745 0)
(-34.8647 -21.0922 -1.9692e-15)
(-34.9498 -21.2226 0)
(-34.9546 -21.8232 0)
(-34.8496 -23.0056 1.17505e-15)
(-33.5225 -24.9074 3.94237e-19)
(-37.5254 -28.0046 1.27482e-18)
(-31.2488 -24.107 -3.85157e-15)
(-31.6851 -23.1204 -2.38262e-18)
(-32.1243 -22.2339 0)
(-32.5526 -21.4685 0)
(-32.9606 -20.8608 -5.43156e-15)
(-33.3505 -20.4622 3.63425e-15)
(-33.7396 -20.3331 3.69423e-15)
(-34.1485 -20.5416 1.91346e-15)
(-34.596 -21.2063 -4.09392e-15)
(-35.1284 -22.5035 -1.1518e-15)
(-34.6769 -24.8799 0)
(-39.2778 -29.049 4.41438e-16)
(-29.7254 -23.3152 -7.25622e-15)
(-30.1625 -22.2532 3.53526e-15)
(-30.6092 -21.3164 3.47394e-15)
(-31.0675 -20.5202 1.8757e-18)
(-31.5459 -19.8928 -3.89202e-18)
(-32.0628 -19.4751 -3.39276e-15)
(-32.6496 -19.3172 -5.11842e-15)
(-33.3459 -19.4806 -1.74452e-15)
(-34.1873 -20.0733 1.83463e-15)
(-35.2761 -21.2879 0)
(-35.6593 -23.6143 1.85609e-15)
(-40.5879 -28.5389 -1.23494e-15)
(-28.2151 -22.583 6.92272e-15)
(-28.6436 -21.4263 -3.39345e-15)
(-29.0855 -20.4119 -3.33458e-15)
(-29.5564 -19.5485 -6.57503e-15)
(-30.0796 -18.8548 6.50593e-15)
(-30.6897 -18.3595 -1.87355e-18)
(-31.4355 -18.0993 9.6595e-15)
(-32.3814 -18.1253 1.62219e-15)
(-33.5902 -18.5282 1.68148e-15)
(-35.2347 -19.5112 0)
(-36.5081 -21.6365 -1.11637e-15)
(-41.5948 -26.8619 3.84046e-16)
(-26.6343 -21.8541 0)
(-27.0378 -20.5921 3.28321e-15)
(-27.4547 -19.485 3.23322e-15)
(-27.9122 -18.5334 -3.19265e-15)
(-28.4463 -17.7445 -1.43251e-18)
(-29.1046 -17.133 -3.12264e-15)
(-29.9541 -16.7175 -3.08966e-15)
(-31.0848 -16.5295 0)
(-32.5939 -16.6266 -1.56424e-15)
(-34.7254 -17.1888 -8.41689e-16)
(-36.9079 -18.8137 2.53906e-15)
(-42.0388 -23.6482 -3.55539e-16)
(-24.8543 -21.0136 0)
(-25.2256 -19.6644 0)
(-25.6051 -18.4757 0)
(-26.0288 -17.4398 -9.36351e-15)
(-26.5426 -16.5527 6.16654e-15)
(-27.204 -15.8137 6.09047e-15)
(-28.0946 -15.2181 0)
(-29.3252 -14.7699 -2.96887e-15)
(-31.0332 -14.4781 0)
(-33.5502 -14.472 -1.55815e-15)
(-36.448 -15.2111 -4.62924e-16)
(-41.7734 -18.87 -6.66905e-16)
(-22.7489 -19.9 0)
(-23.0961 -18.5242 0)
(-23.4386 -17.3013 6.18042e-15)
(-23.8188 -16.2178 9.15892e-15)
(-24.2901 -15.2597 3.08717e-18)
(-24.9148 -14.4117 2.98651e-15)
(-25.7857 -13.6462 -1.47274e-15)
(-27.0145 -12.9333 4.34397e-15)
(-28.7778 -12.2089 2.86205e-15)
(-31.4858 -11.5444 1.46272e-15)
(-34.7134 -10.9379 -8.50611e-16)
(-40.3323 -12.0493 -1.24721e-15)
(-20.2517 -18.3625 0)
(-20.5882 -17.0586 0)
(-20.9024 -15.8804 -6.0292e-15)
(-21.2397 -14.8139 2.98655e-15)
(-21.6585 -13.8412 -2.95326e-15)
(-22.2174 -12.9364 -2.92412e-15)
(-23.0176 -12.0479 2.89272e-15)
(-24.1496 -11.1173 0)
(-25.8144 -9.99481 -2.79309e-15)
(-28.3169 -8.64274 -1.3966e-15)
(-32.0499 -6.3583 1.14738e-15)
(-37.2679 1.48079 2.08465e-19)
(-21.7775 0.641899 -1.64611e-19)
(-18.8651 1.15759 0)
(-17.4052 2.78047 0)
(-16.2892 4.259 -6.09105e-15)
(-15.7274 5.52405 9.16289e-15)
(-15.4238 6.62951 0)
(-16.6946 7.46944 0)
(-17.7392 12.2252 2.79565e-15)
(-14.6451 24.8839 2.85557e-15)
(-19.6492 31.9774 8.51515e-15)
(-22.5029 34.0219 1.41484e-14)
(-24.2129 37.7031 -2.65202e-15)
(-25.591 -5.38539 -2.47392e-19)
(-22.1892 -3.03743 0)
(-22.543 0.693378 0)
(-22.0339 3.74885 -2.61104e-15)
(-23.495 6.68018 5.29531e-15)
(-24.5839 11.9749 -1.58955e-14)
(-25.9931 21.0462 1.00613e-14)
(-28.3437 28.3138 2.29796e-15)
(-28.0642 31.6357 -4.29139e-15)
(-28.9258 32.7122 7.15454e-18)
(-29.2323 32.9316 0)
(-29.3111 34.3387 -7.41402e-15)
(-28.9727 -5.15283 3.06633e-16)
(-25.9345 -1.6862 0)
(-26.9466 3.7271 0)
(-26.995 9.15267 -2.16895e-18)
(-28.3755 16.1175 2.67301e-18)
(-29.9411 23.9174 -4.61318e-15)
(-30.3508 29.3169 0)
(-30.219 32.3794 -1.09595e-14)
(-28.9282 33.7808 1.03196e-14)
(-28.1968 34.2139 -3.0841e-15)
(-27.5327 34.5693 -5.90669e-15)
(-26.8321 35.2405 8.51566e-15)
(-32.6343 -5.59587 1.12725e-15)
(-31.0086 -0.396578 1.04922e-15)
(-32.6817 6.68415 0)
(-32.8887 13.9944 2.08066e-15)
(-33.4626 21.4079 -2.06796e-15)
(-33.08 27.0726 3.98488e-15)
(-32.0402 30.2161 0)
(-30.7079 31.918 -3.07748e-15)
(-29.3009 32.8137 -8.74472e-15)
(-28.2263 33.1558 5.46893e-15)
(-27.273 33.4678 5.18076e-15)
(-26.3446 33.8614 -9.91803e-15)
(-34.7845 -2.04055 -5.15929e-16)
(-35.0501 2.79015 -9.5314e-16)
(-36.5446 10.0535 1.87834e-15)
(-36.4767 17.2698 0)
(-35.91 23.5606 -7.30856e-15)
(-34.439 27.3857 6.67058e-15)
(-32.6544 29.5189 3.13472e-15)
(-30.9256 30.6319 2.8712e-15)
(-29.2995 31.1801 0)
(-27.9172 31.5092 0)
(-26.7048 31.8366 0)
(-25.5904 32.2089 -6.55233e-18)
(-37.3059 -0.272679 6.3067e-19)
(-38.0508 5.21559 0)
(-39.1313 12.1563 -1.69621e-15)
(-38.5324 18.5686 3.35237e-15)
(-37.0724 23.5628 3.20307e-15)
(-35.002 26.4503 -5.82986e-15)
(-32.9304 28.0277 2.77385e-15)
(-30.9222 28.9601 -1.0343e-14)
(-29.1109 29.5295 -1.40197e-18)
(-27.5387 29.9306 -3.61918e-18)
(-26.1566 30.3043 2.49957e-18)
(-24.9136 30.6962 1.24876e-14)
(-39.2642 2.85442 4.44616e-16)
(-40.8551 7.52312 1.60429e-15)
(-41.1365 13.5588 -3.08669e-15)
(-40.0778 18.7635 -2.98689e-15)
(-37.9845 22.6152 -5.66045e-15)
(-35.5566 24.9084 -2.65444e-15)
(-33.1874 26.3161 -4.96972e-15)
(-30.985 27.2251 9.35374e-15)
(-29.0066 27.8556 0)
(-27.2625 28.3465 8.43116e-15)
(-25.7198 28.7909 -1.21202e-14)
(-24.3411 29.2298 3.89866e-15)
(-41.6471 4.66958 -8.26839e-16)
(-43.4784 9.02166 -2.20597e-15)
(-42.9705 14.022 4.17187e-15)
(-41.4915 18.1004 0)
(-38.9541 21.1748 -2.50942e-15)
(-36.2349 23.1994 4.73535e-15)
(-33.6088 24.5602 -2.36764e-18)
(-31.192 25.5214 9.68076e-19)
(-29.0189 26.2412 -4.09602e-15)
(-27.0893 26.8195 -7.87693e-15)
(-25.3767 27.3273 3.80391e-15)
(-23.8494 27.8045 -3.69569e-15)
(-43.2015 7.18458 -7.73436e-16)
(-45.8984 10.2324 0)
(-44.507 13.8494 0)
(-42.7194 16.9479 0)
(-39.8977 19.4673 2.23356e-15)
(-36.944 21.3579 0)
(-34.084 22.7517 -3.1387e-18)
(-31.4481 23.8039 7.92485e-15)
(-29.0694 24.621 2.25638e-18)
(-26.9473 25.2789 3.72417e-15)
(-25.0594 25.8375 -3.63149e-15)
(-23.3765 26.338 1.06522e-14)
(-46.3752 7.93356 -1.44077e-15)
(-48.0258 10.3569 2.96585e-15)
(-45.5797 12.8014 -1.11112e-15)
(-43.2788 15.2778 0)
(-40.2255 17.446 0)
(-37.1154 19.2641 0)
(-34.124 20.7241 0)
(-31.3568 21.8866 3.73633e-15)
(-28.8448 22.8101 -1.46034e-14)
(-26.5887 23.5511 -7.1489e-15)
(-24.5712 24.1609 7.00934e-15)
(-22.768 24.6825 3.44623e-15)
(-46.8872 10.8541 -6.4282e-16)
(-47.7381 9.68252 -1.65392e-15)
(-44.4605 10.8839 -1.02868e-15)
(-41.7402 12.8867 0)
(-38.7419 14.8484 0)
(-35.7769 16.678 3.72873e-15)
(-32.9462 18.2529 -7.27937e-15)
(-30.3003 19.556 1.4267e-14)
(-27.8626 20.6087 1.0506e-14)
(-25.6388 21.451 6.88488e-15)
(-23.6224 22.1288 -6.77731e-15)
(-21.8007 22.6864 4.9333e-18)
(-43.5121 4.80917 -1.15559e-18)
(-42.3185 6.63428 0)
(-38.8583 7.63046 1.92307e-15)
(-36.4918 9.57605 -5.62977e-15)
(-34.3039 11.6456 5.4517e-15)
(-32.1132 13.6189 2.98172e-18)
(-29.933 15.3462 3.46656e-15)
(-27.7931 16.7953 -3.40737e-15)
(-25.7332 17.9749 -1.67972e-14)