/*--------------------------------*- C++ -*----------------------------------*\
| =========                 |                                                 |
| \\      /  F ield         | OpenFOAM: The Open Source CFD Toolbox           |
|  \\    /   O peration     | Version:  2212                                  |
|   \\  /    A nd           | Website:  www.openfoam.com                      |
|    \\/     M anipulation  |                                                 |
\*---------------------------------------------------------------------------*/
FoamFile
{
    version     2.0;
    format      ascii;
    arch        "LSB;label=32;scalar=64";
    class       volScalarField;
    location    "0.06";
    object      alphat;
}
// * * * * * * * * * * * * * * * * * * * * * * * * * * * * * * * * * * * * * //

dimensions      [1 -1 -1 0 0 0 0];

internalField   nonuniform List<scalar> 
3072
(
0.000343109
0.000724144
0.000749983
0.000746486
0.000718452
0.000691291
0.000758015
0.00124565
0.00179519
0.00199505
0.00208213
0.00215122
0.00055859
0.00143853
0.00196174
0.00185659
0.00118587
0.00100385
0.00183767
0.00229181
0.00353943
0.00495716
0.00697669
0.00908001
0.000731521
0.00262573
0.00318327
0.00273917
0.00244907
0.00266126
0.00410135
0.00605309
0.00882503
0.012037
0.0151111
0.0178984
0.000920351
0.00376997
0.00364691
0.00324814
0.00355206
0.00518286
0.00800285
0.0111889
0.0148306
0.0184799
0.021743
0.0245918
0.00106407
0.00459693
0.00469515
0.00462321
0.0059382
0.00886136
0.0122902
0.0159577
0.0197755
0.0234044
0.0266426
0.0294599
0.00119011
0.00566382
0.00640604
0.0068392
0.00903849
0.0123668
0.0159781
0.0196951
0.0234122
0.0269058
0.0300445
0.0327889
0.00128588
0.00642848
0.00785318
0.00923439
0.012079
0.0155619
0.0191159
0.0227107
0.026195
0.0294424
0.0323736
0.0349609
0.00138924
0.00764135
0.00977532
0.0122836
0.0155139
0.0189131
0.0222813
0.0255714
0.0286676
0.0315124
0.0340773
0.0363428
0.00151547
0.00901969
0.0128499
0.0163611
0.0196719
0.0227208
0.0255611
0.0282127
0.0306495
0.0328791
0.0349272
0.0367815
0.00169396
0.010764
0.0160882
0.0199537
0.0230364
0.0255557
0.0277495
0.0297368
0.0315601
0.0332648
0.0348921
0.0364329
0.00194354
0.0105122
0.0176436
0.0217638
0.0245816
0.0268683
0.0287808
0.0304322
0.0319383
0.0333409
0.0346768
0.0359775
0.00343502
0.010428
0.0188097
0.0233114
0.0258897
0.0280977
0.0298355
0.0312714
0.032539
0.0336927
0.0347714
0.0358036
0.0021869
0.00220902
0.00221153
0.00221155
0.00219386
0.00215425
0.00209173
0.00200079
0.00187404
0.00171197
0.00148052
0.000717336
0.0111295
0.012814
0.0138291
0.0140702
0.0137095
0.0128718
0.0115474
0.00976986
0.00754141
0.00459432
0.00219083
0.00121888
0.020225
0.0218938
0.022753
0.0228577
0.0223575
0.0211679
0.019279
0.0166423
0.0132303
0.00903259
0.00402611
0.00160226
0.0269212
0.0286499
0.029707
0.0301016
0.029802
0.0287233
0.0267664
0.0237562
0.0195371
0.013992
0.00693253
0.00195803
0.0317987
0.0336108
0.0348572
0.0355022
0.0354889
0.0347301
0.033063
0.0302031
0.0256237
0.0190796
0.0101922
0.00230798
0.0351058
0.0369695
0.0383604
0.0392516
0.0396117
0.0393493
0.0382356
0.0358442
0.0315268
0.0244058
0.0139895
0.00267252
0.0371768
0.0390001
0.0404242
0.0414625
0.0421305
0.0423735
0.0419771
0.0404256
0.0367695
0.0296218
0.0180193
0.00305296
0.0382943
0.0399273
0.0412583
0.0423381
0.0432072
0.043869
0.0441885
0.0436719
0.0411397
0.0344506
0.0217397
0.00347845
0.0384276
0.0398605
0.0410994
0.0421771
0.0431548
0.0440976
0.0449901
0.0454996
0.0444352
0.0388768
0.0251459
0.00394391
0.0378605
0.0391432
0.0403048
0.0413567
0.0423724
0.0434473
0.0446593
0.0459411
0.0464061
0.0428391
0.0290016
0.00443929
0.0372068
0.0383564
0.039429
0.0404084
0.0413387
0.0423123
0.0435771
0.0451452
0.0466079
0.0454353
0.033441
0.00498467
0.0367913
0.0377348
0.0386392
0.0395267
0.040448
0.0413164
0.04221
0.0436925
0.045667
0.0466338
0.038122
0.00561112
0.000322336
0.000683108
0.000713248
0.000709537
0.000690034
0.000654562
0.000689302
0.00101118
0.00163336
0.0018714
0.00196588
0.00203474
0.000524562
0.00135833
0.0018949
0.00188378
0.00129933
0.000817783
0.00160249
0.00200051
0.00295496
0.00432429
0.00610223
0.00803142
0.000684678
0.00244811
0.0031424
0.00280449
0.0024747
0.00237816
0.0033984
0.00513134
0.00754553
0.0105537
0.0134594
0.0160922
0.000861614
0.00363295
0.00360379
0.00314097
0.00318798
0.00416881
0.00671757
0.00968054
0.0130142
0.0164853
0.0196031
0.0223291
0.000999943
0.00431748
0.004318
0.00409024
0.00486933
0.00733503
0.0106951
0.0140714
0.0176583
0.0211123
0.0242032
0.0269034
0.00112273
0.00519748
0.00568029
0.00582815
0.00763737
0.0108066
0.014215
0.0177005
0.0211247
0.0244318
0.0274179
0.0300414
0.00122311
0.00595507
0.00703256
0.00812694
0.0107324
0.0140286
0.0173688
0.0206802
0.0239194
0.0269465
0.0296884
0.0321222
0.00133341
0.00721532
0.00909136
0.011425
0.0143902
0.0175132
0.0205803
0.0235571
0.0263976
0.0290115
0.0313687
0.0334621
0.00146483
0.00879142
0.0123393
0.0156076
0.0185937
0.0213169
0.0238358
0.0261832
0.0283586
0.0303911
0.0322207
0.033878
0.00165384
0.0106467
0.0154676
0.0189452
0.0217174
0.0239373
0.0258625
0.0275958
0.0292047
0.0307445
0.0321857
0.0335381
0.0018989
0.0101468
0.0167327
0.0205235
0.0230752
0.0250944
0.0267582
0.028191
0.0294966
0.0307357
0.0319261
0.0330779
0.00333904
0.00984947
0.0177
0.0218584
0.0241041
0.0260405
0.0275352
0.028784
0.0299032
0.0309446
0.0319405
0.0329087
0.00207369
0.00209685
0.00210253
0.00210303
0.0020935
0.00205706
0.00200357
0.00191928
0.00180432
0.00165043
0.0014298
0.000690407
0.00999859
0.0116398
0.0126817
0.0129855
0.0126304
0.0118855
0.0106813
0.00907739
0.00702389
0.00430855
0.00208483
0.00117725
0.0183553
0.0199905
0.0208761
0.0210556
0.0206203
0.0195591
0.0178436
0.0154347
0.0123073
0.00843705
0.00379259
0.00155072
0.0245927
0.0262832
0.0273578
0.0278027
0.0275888
0.0266408
0.0248658
0.0221101
0.0182261
0.0131191
0.00653428
0.00189469
0.0291673
0.0309415
0.0321922
0.032881
0.032949
0.032312
0.0308215
0.0282164
0.0239463
0.0178789
0.00959676
0.00223449
0.0322752
0.0340941
0.0354782
0.0363975
0.0368118
0.0366374
0.035662
0.0334907
0.0295253
0.0228982
0.0132073
0.00258782
0.0342309
0.0359967
0.0374082
0.0384664
0.0391791
0.0394958
0.0392146
0.0378483
0.0345036
0.0278661
0.0170531
0.00295703
0.0352915
0.0368615
0.0381747
0.0392632
0.0401655
0.0408845
0.0412937
0.040924
0.03866
0.0324909
0.0206768
0.0033685
0.0353823
0.0367584
0.0379852
0.0390733
0.0400757
0.0410609
0.0420193
0.0426379
0.0417879
0.0367142
0.0239518
0.00382429
0.0348269
0.0360667
0.0372046
0.0382633
0.039295
0.0404088
0.0416723
0.0430311
0.0436769
0.0404461
0.0277016
0.00431268
0.0342329
0.035351
0.0364189
0.0374234
0.0383694
0.0393552
0.0406559
0.0423513
0.0439259
0.0431879
0.032171
0.00485957
0.0338694
0.0348179
0.0357444
0.0367164
0.0376973
0.0385505
0.0394907
0.0409666
0.0430237
0.0443532
0.0370272
0.00550951
0.000343105
0.000724136
0.000749976
0.00074648
0.000718446
0.000691283
0.000758004
0.00124562
0.00179518
0.00199505
0.00208212
0.00215122
0.000558585
0.00143853
0.00196175
0.00185661
0.00118589
0.00100383
0.00183764
0.00229178
0.00353937
0.0049571
0.00697661
0.00907992
0.000731516
0.00262572
0.0031833
0.00273919
0.0024491
0.00266121
0.00410126
0.00605299
0.0088249
0.0120369
0.015111
0.0178983
0.000920343
0.00377
0.00364694
0.00324815
0.00355201
0.0051827
0.00800269
0.0111887
0.0148304
0.0184797
0.0217428
0.0245916
0.00106406
0.00459691
0.00469508
0.00462311
0.00593801
0.00886111
0.01229
0.0159575
0.0197753
0.0234041
0.0266424
0.0294597
0.0011901
0.00566372
0.00640588
0.00683897
0.00903821
0.0123666
0.0159779
0.0196948
0.0234119
0.0269055
0.0300442
0.0327887
0.00128587
0.00642835
0.00785294
0.00923407
0.0120787
0.0155616
0.0191156
0.0227104
0.0261947
0.0294421
0.0323733
0.0349606
0.00138923
0.00764121
0.00977507
0.0122833
0.0155136
0.0189128
0.022281
0.0255711
0.0286673
0.0315121
0.034077
0.0363425
0.00151546
0.00901961
0.0128497
0.0163609
0.0196716
0.0227206
0.0255609
0.0282124
0.0306492
0.0328788
0.0349269
0.0367812
0.00169395
0.010764
0.0160881
0.0199536
0.0230363
0.0255556
0.0277493
0.0297366
0.0315598
0.0332646
0.0348918
0.0364326
0.00194354
0.0105122
0.0176435
0.0217637
0.0245815
0.0268682
0.0287807
0.030432
0.0319381
0.0333407
0.0346766
0.0359772
0.00343501
0.010428
0.0188096
0.0233113
0.0258897
0.0280977
0.0298354
0.0312713
0.0325389
0.0336925
0.0347712
0.0358034
0.00218689
0.00220902
0.00221152
0.00221154
0.00219385
0.00215424
0.00209173
0.00200079
0.00187404
0.00171196
0.00148052
0.000717336
0.0111294
0.0128139
0.013829
0.0140701
0.0137095
0.0128718
0.0115473
0.00976982
0.00754138
0.0045943
0.00219082
0.00121888
0.0202249
0.0218936
0.0227529
0.0228576
0.0223574
0.0211678
0.0192789
0.0166422
0.0132303
0.00903256
0.0040261
0.00160226
0.026921
0.0286498
0.0297069
0.0301015
0.0298018
0.0287231
0.0267663
0.0237561
0.019537
0.0139919
0.00693251
0.00195803
0.0317984
0.0336106
0.0348569
0.035502
0.0354888
0.0347299
0.0330628
0.0302029
0.0256236
0.0190795
0.0101921
0.00230797
0.0351056
0.0369692
0.0383602
0.0392514
0.0396115
0.0393491
0.0382354
0.035844
0.0315267
0.0244057
0.0139894
0.00267251
0.0371766
0.0389998
0.0404239
0.0414623
0.0421302
0.0423732
0.0419768
0.0404254
0.0367693
0.0296217
0.0180193
0.00305295
0.0382941
0.0399271
0.041258
0.0423379
0.043207
0.0438688
0.0441883
0.0436717
0.0411396
0.0344505
0.0217396
0.00347845
0.0384274
0.0398602
0.0410991
0.0421769
0.0431545
0.0440974
0.0449899
0.0454994
0.044435
0.0388767
0.0251458
0.0039439
0.0378603
0.0391429
0.0403046
0.0413565
0.0423722
0.043447
0.0446591
0.0459408
0.0464059
0.042839
0.0290016
0.00443929
0.0372065
0.0383562
0.0394288
0.0404081
0.0413385
0.042312
0.0435769
0.0451449
0.0466076
0.0454351
0.033441
0.00498466
0.0367911
0.0377346
0.038639
0.0395265
0.0404478
0.0413162
0.0422097
0.0436922
0.0456668
0.0466336
0.038122
0.00561112
0.000322336
0.000683109
0.000713248
0.000709537
0.000690034
0.000654562
0.000689303
0.00101118
0.00163336
0.0018714
0.00196588
0.00203475
0.000524562
0.00135833
0.0018949
0.00188378
0.00129933
0.00081778
0.00160249
0.00200051
0.00295496
0.00432429
0.00610223
0.00803142
0.000684678
0.0024481
0.00314239
0.00280449
0.0024747
0.00237816
0.0033984
0.00513134
0.00754553
0.0105537
0.0134594
0.0160922
0.000861614
0.00363295
0.00360378
0.00314097
0.00318798
0.00416881
0.00671757
0.00968054
0.0130142
0.0164853
0.0196031
0.0223291
0.000999943
0.00431748
0.00431799
0.00409024
0.00486933
0.00733503
0.0106951
0.0140714
0.0176583
0.0211123
0.0242032
0.0269035
0.00112273
0.00519748
0.00568029
0.00582815
0.00763737
0.0108066
0.014215
0.0177005
0.0211247
0.0244318
0.0274179
0.0300414
0.00122311
0.00595507
0.00703256
0.00812695
0.0107324
0.0140286
0.0173688
0.0206802
0.0239194
0.0269465
0.0296884
0.0321222
0.00133341
0.00721533
0.00909137
0.011425
0.0143902
0.0175132
0.0205803
0.0235571
0.0263976
0.0290115
0.0313687
0.0334621
0.00146483
0.00879143
0.0123393
0.0156076
0.0185937
0.0213169
0.0238358
0.0261832
0.0283586
0.0303911
0.0322208
0.033878
0.00165385
0.0106467
0.0154676
0.0189452
0.0217174
0.0239373
0.0258625
0.0275958
0.0292047
0.0307445
0.0321857
0.0335382
0.0018989
0.0101468
0.0167327
0.0205235
0.0230752
0.0250945
0.0267582
0.028191
0.0294966
0.0307357
0.0319262
0.0330779
0.00333903
0.00984946
0.0176999
0.0218584
0.0241041
0.0260405
0.0275352
0.028784
0.0299032
0.0309446
0.0319405
0.0329087
0.00207369
0.00209685
0.00210253
0.00210303
0.00209351
0.00205706
0.00200357
0.00191928
0.00180432
0.00165043
0.0014298
0.000690408
0.0099986
0.0116398
0.0126817
0.0129855
0.0126304
0.0118855
0.0106813
0.0090774
0.00702389
0.00430856
0.00208483
0.00117725
0.0183553
0.0199905
0.0208762
0.0210556
0.0206203
0.0195591
0.0178436
0.0154347
0.0123073
0.00843706
0.00379259
0.00155073
0.0245927
0.0262832
0.0273578
0.0278027
0.0275889
0.0266408
0.0248658
0.0221102
0.0182261
0.0131191
0.00653428
0.00189469
0.0291673
0.0309415
0.0321922
0.032881
0.032949
0.032312
0.0308215
0.0282164
0.0239464
0.0178789
0.00959677
0.00223449
0.0322752
0.0340941
0.0354782
0.0363975
0.0368118
0.0366374
0.0356621
0.0334907
0.0295254
0.0228982
0.0132074
0.00258782
0.034231
0.0359967
0.0374082
0.0384664
0.0391791
0.0394958
0.0392146
0.0378483
0.0345036
0.0278661
0.0170532
0.00295703
0.0352915
0.0368615
0.0381747
0.0392632
0.0401656
0.0408846
0.0412937
0.0409241
0.03866
0.032491
0.0206768
0.0033685
0.0353824
0.0367584
0.0379853
0.0390733
0.0400757
0.0410609
0.0420194
0.0426379
0.041788
0.0367142
0.0239518
0.00382429
0.0348269
0.0360667
0.0372047
0.0382634
0.039295
0.0404088
0.0416723
0.0430312
0.043677
0.0404462
0.0277017
0.00431269
0.0342329
0.035351
0.036419
0.0374234
0.0383694
0.0393553
0.040656
0.0423514
0.043926
0.0431879
0.032171
0.00485957
0.0338695
0.0348179
0.0357444
0.0367164
0.0376973
0.0385505
0.0394907
0.0409667
0.0430237
0.0443533
0.0370273
0.00550951
0.0209793
0.0219842
0.0238907
0.0260259
0.0280397
0.0298679
0.0312831
0.0324545
0.0334993
0.0344121
0.0352364
0.036003
0.0328973
0.0307553
0.0303129
0.0307138
0.031576
0.0324308
0.0330501
0.0338531
0.0346928
0.0353123
0.0358337
0.0363117
0.0404516
0.038317
0.0368286
0.0359269
0.0355824
0.0355225
0.0355969
0.0357228
0.0358543
0.0359848
0.0361129
0.0363142
0.0429925
0.0414906
0.0400881
0.0389047
0.0379909
0.037284
0.0367263
0.0364251
0.0361573
0.0359031
0.0356881
0.0354462
0.0367223
0.0374073
0.0380664
0.0387155
0.0394194
0.0403082
0.0412243
0.0422381
0.0439919
0.0463737
0.0474227
0.0221413
0.036736
0.0371399
0.0375413
0.0379663
0.0384415
0.0390119
0.0398668
0.0407339
0.042031
0.0444153
0.0493273
0.0363642
0.0364115
0.0365278
0.036679
0.0369197
0.037264
0.037731
0.0384033
0.0393479
0.0404997
0.0422766
0.0468178
0.0426947
0.035266
0.0352239
0.0353453
0.0357331
0.03626
0.0369218
0.0377375
0.0388507
0.0400973
0.0414253
0.0443381
0.0440719
0.0197594
0.0203799
0.0221139
0.0240051
0.0257572
0.0273148
0.0285315
0.0296043
0.0305923
0.03148
0.0323071
0.0331
0.0313846
0.0288886
0.0280881
0.0281907
0.0287254
0.0293283
0.0299555
0.0307658
0.0316031
0.0322664
0.0328897
0.0334706
0.0390972
0.0364606
0.0343993
0.0332131
0.0326034
0.0324083
0.0324553
0.0326377
0.032906
0.033126
0.0333638
0.0336393
0.0418627
0.0397761
0.0379769
0.0364391
0.0352791
0.0345261
0.0340148
0.0336359
0.0334609
0.0333431
0.0332514
0.0331836
0.0338741
0.0346315
0.0353648
0.036096
0.0368674
0.0377805
0.038554
0.0397041
0.0415914
0.0442727
0.0466451
0.0226579
0.0340347
0.0345758
0.0350812
0.0355761
0.0360828
0.0367699
0.0375211
0.0383196
0.039839
0.042501
0.0483188
0.0372239
0.0339735
0.0342645
0.0344816
0.0346931
0.0349546
0.0353978
0.0360986
0.0368563
0.038327
0.0402711
0.0453097
0.0432636
0.0331244
0.0330392
0.0330118
0.0330697
0.0332765
0.0338474
0.0346288
0.0355827
0.0372201
0.0388825
0.0426426
0.0438017
0.0209792
0.0219842
0.0238906
0.0260258
0.0280397
0.0298679
0.0312831
0.0324544
0.0334992
0.034412
0.0352363
0.0360029
0.0328972
0.0307553
0.0303128
0.0307138
0.0315759
0.0324308
0.0330501
0.033853
0.0346928
0.0353122
0.0358336
0.0363116
0.0404515
0.0383169
0.0368285
0.0359268
0.0355824
0.0355224
0.0355969
0.0357227
0.0358542
0.0359847
0.0361128
0.0363141
0.0429924
0.0414904
0.040088
0.0389046
0.0379908
0.0372839
0.0367262
0.036425
0.0361573
0.035903
0.035688
0.0354461
0.0367221
0.0374071
0.0380662
0.0387154
0.0394193
0.040308
0.0412241
0.0422379
0.0439917
0.0463735
0.0474226
0.0221413
0.0367359
0.0371398
0.0375412
0.0379662
0.0384413
0.0390118
0.0398666
0.0407338
0.0420309
0.0444152
0.0493271
0.0363641
0.0364114
0.0365277
0.0366789
0.0369196
0.0372639
0.0377309
0.0384032
0.0393478
0.0404996
0.0422764
0.0468176
0.0426945
0.0352659
0.0352238
0.0353452
0.035733
0.0362599
0.0369217
0.0377374
0.0388505
0.0400971
0.0414252
0.044338
0.0440718
0.0197593
0.0203799
0.0221139
0.0240051
0.0257572
0.0273148
0.0285314
0.0296042
0.0305923
0.03148
0.0323071
0.0331
0.0313845
0.0288886
0.028088
0.0281907
0.0287254
0.0293282
0.0299555
0.0307658
0.0316031
0.0322664
0.0328897
0.0334706
0.0390971
0.0364605
0.0343992
0.033213
0.0326034
0.0324083
0.0324552
0.0326377
0.032906
0.033126
0.0333638
0.0336393
0.0418626
0.039776
0.0379768
0.036439
0.0352791
0.0345261
0.0340148
0.0336359
0.0334609
0.0333431
0.0332515
0.0331836
0.0338741
0.0346315
0.0353648
0.0360961
0.0368675
0.0377805
0.038554
0.0397042
0.0415915
0.0442728
0.0466452
0.0226579
0.0340347
0.0345758
0.0350812
0.0355762
0.0360828
0.0367699
0.0375212
0.0383196
0.0398391
0.0425011
0.0483189
0.037224
0.0339735
0.0342646
0.0344817
0.0346932
0.0349547
0.0353978
0.0360986
0.0368564
0.0383272
0.0402712
0.0453099
0.0432637
0.0331244
0.0330392
0.0330119
0.0330698
0.0332766
0.0338475
0.0346289
0.0355828
0.0372203
0.0388827
0.0426428
0.0438019
0.0413194
0.040041
0.0387837
0.0376976
0.0368211
0.036103
0.0354942
0.0350395
0.0345821
0.034102
0.0336485
0.0333501
0.0391111
0.0380077
0.036869
0.0358466
0.0349712
0.0342154
0.0335402
0.0329253
0.0322492
0.0314598
0.0305918
0.0299607
0.0367732
0.035836
0.0348062
0.0338365
0.0329621
0.0321647
0.0314034
0.0306217
0.0296831
0.0284243
0.0266683
0.0247611
0.0344927
0.0337069
0.0327836
0.0318639
0.0309908
0.0301518
0.029301
0.0283525
0.0271151
0.0251852
0.0216636
0.0161413
0.033533
0.0342366
0.0351062
0.0361371
0.0372505
0.0382918
0.0393755
0.0404211
0.0413907
0.0423174
0.0428194
0.0422738
0.0305076
0.0323721
0.0341726
0.035846
0.0374143
0.0387373
0.0398703
0.0407802
0.0414421
0.0417012
0.0416427
0.0407461
0.0253821
0.0296188
0.0327716
0.035103
0.0369614
0.0384227
0.0395493
0.0403279
0.040668
0.0406643
0.0403137
0.0390786
0.0161697
0.0257324
0.0309265
0.0339597
0.036045
0.037573
0.0386757
0.0392784
0.0394648
0.0393484
0.0387573
0.037378
0.0402623
0.0383208
0.0366826
0.0353201
0.0342822
0.0335254
0.0329153
0.0323898
0.0319838
0.0316128
0.0312967
0.0310845
0.0387299
0.0368431
0.0352134
0.0338343
0.0327069
0.031777
0.0309509
0.0301781
0.0294496
0.0287135
0.028012
0.0275196
0.0371699
0.0352914
0.0336048
0.0321266
0.0308444
0.0297089
0.0286472
0.0276022
0.0265197
0.0252894
0.0238367
0.0225106
0.035553
0.0336819
0.0319346
0.030349
0.0289164
0.0275959
0.0263233
0.0250225
0.023571
0.0216782
0.0186796
0.0143412
0.0310159
0.0310375
0.0311415
0.0314345
0.0320191
0.0329821
0.0342293
0.0357063
0.0375236
0.0394299
0.0414403
0.042001
0.0275593
0.028028
0.0284591
0.029036
0.0299175
0.031152
0.0326575
0.0343515
0.0361909
0.0379614
0.0392937
0.0396639
0.0226056
0.024465
0.0256314
0.0266073
0.0277533
0.0291594
0.0307731
0.032512
0.0342796
0.0358589
0.0368885
0.0371919
0.0143347
0.020197
0.0228263
0.0243505
0.0257397
0.027238
0.0288615
0.0305553
0.0322172
0.0336173
0.0345059
0.0347967
0.0413192
0.0400408
0.0387836
0.0376975
0.036821
0.0361029
0.0354941
0.0350394
0.034582
0.034102
0.0336485
0.0333501
0.0391109
0.0380076
0.0368688
0.0358465
0.0349711
0.0342153
0.0335401
0.0329252
0.0322491
0.0314598
0.0305917
0.0299607
0.036773
0.0358359
0.0348061
0.0338364
0.032962
0.0321646
0.0314033
0.0306216
0.029683
0.0284242
0.0266683
0.024761
0.0344925
0.0337068
0.0327834
0.0318637
0.0309907
0.0301517
0.0293009
0.0283524
0.027115
0.0251851
0.0216636
0.0161413
0.033533
0.0342365
0.0351062
0.036137
0.0372503
0.0382917
0.0393753
0.040421
0.0413906
0.0423172
0.0428192
0.0422736
0.0305075
0.032372
0.0341726
0.0358459
0.0374142
0.0387371
0.0398701
0.04078
0.041442
0.0417011
0.0416426
0.040746
0.025382
0.0296187
0.0327715
0.0351028
0.0369612
0.0384225
0.0395492
0.0403277
0.0406679
0.0406642
0.0403136
0.0390785
0.0161697
0.0257323
0.0309264
0.0339596
0.0360449
0.0375729
0.0386756
0.0392782
0.0394647
0.0393483
0.0387573
0.037378
0.0402622
0.0383208
0.0366825
0.0353201
0.0342822
0.0335254
0.0329153
0.0323898
0.0319838
0.0316129
0.0312967
0.0310846
0.0387299
0.0368431
0.0352134
0.0338343
0.032707
0.031777
0.030951
0.0301782
0.0294497
0.0287136
0.028012
0.0275197
0.0371699
0.0352913
0.0336048
0.0321266
0.0308444
0.029709
0.0286473
0.0276023
0.0265198
0.0252895
0.0238368
0.0225107
0.035553
0.0336819
0.0319346
0.030349
0.0289165
0.0275961
0.0263235
0.0250226
0.0235711
0.0216784
0.0186797
0.0143413
0.031016
0.0310376
0.0311417
0.0314347
0.0320193
0.0329823
0.0342295
0.0357065
0.0375238
0.03943
0.0414405
0.0420012
0.0275594
0.0280282
0.0284593
0.0290363
0.0299178
0.0311523
0.0326578
0.0343518
0.0361911
0.0379616
0.039294
0.0396641
0.0226057
0.0244652
0.0256318
0.0266078
0.0277537
0.0291598
0.0307735
0.0325123
0.0342799
0.0358591
0.0368887
0.0371921
0.0143347
0.0201974
0.0228268
0.0243511
0.0257403
0.0272385
0.028862
0.0305557
0.0322175
0.0336176
0.0345062
0.034797
0.0323415
0.0316881
0.0308619
0.0299912
0.0291228
0.0282476
0.0273143
0.0262131
0.0246964
0.0220295
0.0159549
0.00353342
0.0303344
0.0297918
0.0290525
0.0282298
0.0273706
0.0264677
0.0254657
0.0242407
0.0225136
0.0195754
0.013708
0.00245438
0.0284591
0.0280072
0.0273445
0.0265686
0.0257238
0.0248034
0.0237511
0.0224396
0.0205992
0.0176336
0.0123049
0.00200531
0.0266872
0.0263095
0.0257141
0.024984
0.0241592
0.023233
0.0221505
0.0207907
0.0189134
0.016046
0.0112609
0.001787
0.0249737
0.0246577
0.0241226
0.0234385
0.0226404
0.0217214
0.0206299
0.0192565
0.0173982
0.0146866
0.0103703
0.00163118
0.0232486
0.0229862
0.0225072
0.0218716
0.0211092
0.0202123
0.019134
0.0177791
0.0159812
0.0134519
0.00953924
0.001497
0.0213983
0.021186
0.0207629
0.0201822
0.0194682
0.0186123
0.0175724
0.0162683
0.0145667
0.0122399
0.00870402
0.00137312
0.0192363
0.0190747
0.0187127
0.018199
0.0175527
0.0167633
0.0157941
0.0145799
0.0130165
0.0109271
0.00779641
0.00125224
0.0164588
0.0163517
0.0160618
0.0156359
0.0150866
0.0144015
0.0135491
0.0124808
0.0111188
0.00933809
0.00671459
0.00112591
0.0125891
0.0125392
0.012338
0.0120315
0.0116239
0.0110998
0.0104355
0.00960197
0.00853712
0.00719041
0.00527845
0.000981009
0.00699329
0.00699104
0.00689366
0.00674506
0.00653872
0.00625672
0.00588777
0.00542782
0.00480877
0.00406915
0.00311853
0.000797889
0.000748143
0.000743623
0.000731106
0.00071348
0.000690486
0.000662042
0.000627321
0.000583164
0.00052705
0.000455958
0.000363337
0.00017289
0.00366548
0.0209692
0.0288529
0.0325402
0.034805
0.036363
0.037401
0.0378966
0.0380449
0.037821
0.0370351
0.0356514
0.0028765
0.018819
0.0269685
0.0309707
0.0333525
0.0349279
0.035882
0.0363322
0.0364363
0.0361259
0.0352572
0.0339114
0.00254616
0.0173559
0.0252241
0.0293225
0.0317586
0.0333228
0.0342281
0.0346467
0.0347018
0.0343267
0.0334472
0.0321662
0.00235416
0.016143
0.023572
0.0276261
0.0300627
0.0315975
0.0324658
0.032867
0.0328735
0.032454
0.0316057
0.0304071
0.00220573
0.0150165
0.0219565
0.0258778
0.0282707
0.0297603
0.0306002
0.0309729
0.0309381
0.030505
0.0297073
0.0285985
0.0020723
0.0138907
0.0203166
0.0240411
0.0263464
0.0277752
0.0285801
0.0289169
0.0288478
0.0284194
0.0276819
0.0266629
0.00194045
0.012702
0.018574
0.0220363
0.0242028
0.0255459
0.0262955
0.0265895
0.026492
0.0260758
0.0253937
0.0244695
0.00180172
0.0113705
0.0166095
0.0197153
0.0216718
0.0228826
0.0235475
0.023787
0.0236639
0.0232617
0.0226279
0.0218134
0.00165311
0.00976589
0.0142049
0.0168094
0.0184488
0.0194571
0.0199952
0.0201641
0.020022
0.0196382
0.019061
0.0183926
0.00147837
0.00769575
0.010974
0.012848
0.0140224
0.0147372
0.0151002
0.0151926
0.0150485
0.0147069
0.0142469
0.0137604
0.00125642
0.00467583
0.00624572
0.00713725
0.00770762
0.00805364
0.00821304
0.00825419
0.00814866
0.00795489
0.00769862
0.00742079
0.000296948
0.000515952
0.000658341
0.000746524
0.000806485
0.000847118
0.000871008
0.000880662
0.000876533
0.000864152
0.000845775
0.000822595
0.0339048
0.0320634
0.0302851
0.0286236
0.0270791
0.0256184
0.0241802
0.0226665
0.020884
0.0183045
0.0130958
0.00295925
0.0322532
0.0304726
0.0287074
0.0270182
0.0254138
0.023868
0.02232
0.0206584
0.0186588
0.0157796
0.0106101
0.00180603
0.0306096
0.0289194
0.0272104
0.0255431
0.0239321
0.0223563
0.0207575
0.0190214
0.0169282
0.0140135
0.00925723
0.00136166
0.0289613
0.0273831
0.0257637
0.0241593
0.022587
0.0210302
0.0194349
0.0176931
0.0156105
0.0128211
0.0085914
0.00119405
0.0272649
0.0258113
0.0243023
0.0227893
0.0212899
0.0197905
0.0182433
0.0165517
0.0145528
0.0119642
0.0082239
0.00112092
0.0254445
0.024117
0.0227287
0.0213252
0.0199229
0.0185106
0.0170462
0.0154458
0.0135754
0.0112095
0.00787048
0.00107008
0.0233751
0.0221697
0.0209084
0.019629
0.0183448
0.0170454
0.0156939
0.0142173
0.0125054
0.0103665
0.0074164
0.00103192
0.0208617
0.0197809
0.0186592
0.0175248
0.0163849
0.0152287
0.0140233
0.0127053
0.0111847
0.00928712
0.00677576
0.000986521
0.0176107
0.0166832
0.0157328
0.0147811
0.0138264
0.0128568
0.0118435
0.0107318
0.009455
0.00783967
0.0058458
0.000928701
0.0131702
0.0124803
0.0117582
0.0110514
0.0103433
0.00962222
0.00886493
0.00802537
0.00707218
0.00580524
0.00441784
0.000846218
0.00710608
0.00677224
0.00641234
0.00604171
0.00566557
0.00528067
0.00487456
0.00441029
0.00391257
0.00316239
0.00247135
0.000726565
0.000794498
0.000762732
0.000727924
0.000691598
0.000654488
0.000616239
0.000576609
0.000533553
0.000487078
0.000424814
0.000362869
0.000225064
0.00319139
0.0153136
0.0201532
0.022309
0.0239144
0.0254482
0.0270257
0.028633
0.0301766
0.0314407
0.0322524
0.032552
0.00230928
0.0129266
0.017996
0.0205239
0.0222613
0.0237893
0.0252946
0.0268025
0.0282336
0.0293924
0.0301557
0.0304697
0.00188291
0.0113487
0.0162669
0.0189428
0.020739
0.0222329
0.0236586
0.0250708
0.0264033
0.0274786
0.0282069
0.0285346
0.00162837
0.0101597
0.0148229
0.017503
0.0192934
0.0207335
0.0220826
0.0234125
0.0246647
0.0256745
0.0263758
0.0267151
0.00144647
0.00917543
0.0135401
0.0161322
0.017862
0.0192318
0.0205104
0.0217756
0.0229693
0.0239308
0.0246123
0.0249629
0.00130633
0.00827748
0.0123269
0.0147569
0.0163745
0.0176539
0.0188647
0.0200817
0.021239
0.0221698
0.0228394
0.0232038
0.00118646
0.0074204
0.0111044
0.0132991
0.0147502
0.0159101
0.0170445
0.0182207
0.0193591
0.0202738
0.0209371
0.0213207
0.00107505
0.00656089
0.0097876
0.0116653
0.0128895
0.0138888
0.0149201
0.0160432
0.0171648
0.0180651
0.0187183
0.0191258
0.000963254
0.00562283
0.00825473
0.00972387
0.0106591
0.0114466
0.012324
0.0133481
0.0144201
0.0152795
0.0158946
0.0163183
0.000839425
0.0044505
0.00629262
0.00723871
0.00782087
0.00833509
0.00897131
0.00979596
0.0107405
0.0115203
0.0120425
0.0124335
0.000685062
0.00270426
0.00357086
0.00394722
0.00416415
0.00437509
0.00470234
0.00521287
0.00580501
0.00630268
0.00665049
0.00688286
0.000148359
0.000313824
0.00038732
0.000429464
0.000462288
0.00050041
0.000549397
0.000606445
0.000656861
0.000695879
0.000724862
0.000742441
0.0323412
0.0316879
0.0308617
0.0299911
0.0291227
0.0282475
0.0273142
0.026213
0.0246962
0.0220294
0.0159549
0.00353342
0.0303342
0.0297915
0.0290523
0.0282296
0.0273704
0.0264675
0.0254656
0.0242405
0.0225135
0.0195752
0.013708
0.00245438
0.0284588
0.0280069
0.0273443
0.0265684
0.0257235
0.0248032
0.0237509
0.0224394
0.020599
0.0176334
0.0123048
0.00200529
0.0266868
0.0263091
0.0257138
0.0249837
0.0241589
0.0232327
0.0221503
0.0207904
0.0189132
0.0160458
0.0112607
0.00178698
0.0249733
0.0246574
0.0241223
0.0234381
0.0226401
0.0217211
0.0206296
0.0192562
0.0173979
0.0146863
0.0103701
0.00163114
0.0232482
0.0229859
0.0225068
0.0218712
0.0211089
0.020212
0.0191337
0.0177788
0.0159808
0.0134516
0.00953902
0.00149695
0.021398
0.0211856
0.0207626
0.0201818
0.0194679
0.018612
0.017572
0.016268
0.0145664
0.0122396
0.00870383
0.00137305
0.019236
0.0190744
0.0187124
0.0181988
0.0175524
0.016763
0.0157938
0.0145796
0.0130162
0.0109268
0.00779628
0.00125215
0.0164586
0.0163514
0.0160616
0.0156357
0.0150864
0.0144013
0.0135489
0.0124807
0.0111186
0.00933796
0.00671458
0.00112581
0.012589
0.0125391
0.0123379
0.0120313
0.0116238
0.0110997
0.0104354
0.00960189
0.00853707
0.00719042
0.00527857
0.000980882
0.0069932
0.00699096
0.00689359
0.006745
0.00653866
0.00625667
0.00588772
0.00542779
0.00480875
0.00406916
0.00311862
0.00079773
0.000748124
0.000743605
0.000731089
0.000713464
0.00069047
0.000662026
0.000627305
0.000583145
0.000527029
0.000455934
0.000363308
0.000172824
0.00366548
0.0209691
0.0288528
0.0325401
0.0348048
0.0363628
0.0374009
0.0378965
0.0380448
0.0378209
0.037035
0.0356514
0.0028765
0.0188189
0.0269684
0.0309705
0.0333524
0.0349278
0.0358818
0.0363321
0.0364362
0.0361258
0.0352571
0.0339114
0.00254615
0.0173558
0.0252239
0.0293224
0.0317584
0.0333226
0.034228
0.0346465
0.0347017
0.0343266
0.0334471
0.0321661
0.00235416
0.0161429
0.0235719
0.0276259
0.0300625
0.0315974
0.0324657
0.0328668
0.0328734
0.0324539
0.0316056
0.0304071
0.00220572
0.0150164
0.0219564
0.0258777
0.0282705
0.0297602
0.0306
0.0309728
0.030938
0.0305049
0.0297072
0.0285985
0.00207229
0.0138907
0.0203165
0.0240409
0.0263463
0.0277751
0.02858
0.0289168
0.0288477
0.0284193
0.0276819
0.0266629
0.00194044
0.0127019
0.0185739
0.0220362
0.0242027
0.0255457
0.0262954
0.0265894
0.0264919
0.0260757
0.0253937
0.0244695
0.0018017
0.0113704
0.0166094
0.0197152
0.0216717
0.0228825
0.0235474
0.0237869
0.0236638
0.0232616
0.0226279
0.0218133
0.00165309
0.00976587
0.0142049
0.0168094
0.0184487
0.0194571
0.0199952
0.0201641
0.0200219
0.0196381
0.019061
0.0183926
0.00147835
0.00769575
0.010974
0.012848
0.0140224
0.0147372
0.0151002
0.0151926
0.0150485
0.0147069
0.0142469
0.0137604
0.0012564
0.00467582
0.00624571
0.00713723
0.0077076
0.00805362
0.00821303
0.00825418
0.00814865
0.00795488
0.00769862
0.00742079
0.000296942
0.000515946
0.000658335
0.000746519
0.00080648
0.000847112
0.000871003
0.000880657
0.000876528
0.000864148
0.000845772
0.000822592
0.0339048
0.0320634
0.0302852
0.0286237
0.0270792
0.0256186
0.0241804
0.0226667
0.0208843
0.0183047
0.0130959
0.00295927
0.0322532
0.0304726
0.0287075
0.0270183
0.025414
0.0238682
0.0223203
0.0206587
0.0186591
0.0157799
0.0106104
0.00180609
0.0306096
0.0289195
0.0272105
0.0255432
0.0239323
0.0223566
0.0207579
0.0190218
0.0169286
0.014014
0.00925761
0.00136177
0.0289613
0.0273831
0.0257638
0.0241594
0.0225873
0.0210304
0.0194353
0.0176936
0.0156111
0.0128217
0.00859183
0.0011942
0.0272649
0.0258113
0.0243024
0.0227895
0.0212901
0.0197908
0.0182437
0.0165521
0.0145534
0.0119648
0.00822423
0.00112109
0.0254445
0.024117
0.0227287
0.0213253
0.0199231
0.0185109
0.0170466
0.0154462
0.0135759
0.01121
0.00787066
0.00107027
0.0233751
0.0221698
0.0209084
0.0196292
0.018345
0.0170457
0.0156942
0.0142177