/*--------------------------------*- C++ -*----------------------------------*\
| =========                 |                                                 |
| \\      /  F ield         | OpenFOAM: The Open Source CFD Toolbox           |
|  \\    /   O peration     | Version:  2212                                  |
|   \\  /    A nd           | Website:  www.openfoam.com                      |
|    \\/     M anipulation  |                                                 |
\*---------------------------------------------------------------------------*/
FoamFile
{
    version     2.0;
    format      ascii;
    arch        "LSB;label=32;scalar=64";
    class       volScalarField;
    location    "0.06";
    object      epsilon;
}
// * * * * * * * * * * * * * * * * * * * * * * * * * * * * * * * * * * * * * //

dimensions      [0 2 -3 0 0 0 0];

internalField   nonuniform List<scalar> 
3072
(
2061.57
1834.44
2282.08
2277.58
2228.04
1964.77
1821.37
2604.53
13631.2
34139.4
44089.3
49181.6
5582.65
5049.88
4027.42
3408.52
4129.97
6561.32
16695.4
23505.9
25196
32824.3
35422.9
36672
7921.56
6196.05
6222.88
7501.08
14960.5
20400.5
20916.8
22316.2
24831.6
27829.3
28831.7
29982
11133.6
8608.97
10000.9
12502.1
16960.3
18599.9
18893.5
21077.5
23687.8
25150.7
25952.4
26788.4
13146.2
10531.4
12641.3
13824.2
15772.7
16547.3
18651.7
21136.1
23010.2
23970.8
24540.9
25082.3
14506.5
11441.6
12800.6
13428.1
15121.5
16863.7
19267.9
21544.2
22841.7
23378.7
23688.9
23992.3
14943.4
11436.6
12390
13551
15849.2
18224
20649.8
22315.5
23129.5
23439.8
23540
23644.9
16151
11756.7
12988
15363.8
18718.9
21351.4
23208.8
24143
24400.6
24355.5
24238.4
24203.9
18123
13307
16797.4
21623.2
26072.7
28395.1
29132.6
28887.2
28195.8
27441
26809.5
26398.8
22308.9
18387
28426.6
37012.3
42303.7
43401
42000.2
39461.5
36818.2
34498.3
32656.4
31316.1
25787.3
34154.2
55896.4
67975.4
71051
68787.3
63175.4
56897.9
51058.4
46117.9
42189.5
39204.3
97153.9
97929.7
107928
110202
106191
97055.2
86637.7
76511.3
67435.6
59765.3
53575
48727.3
53393.7
55532.5
56805
56998.8
57069.9
54434.5
50605.1
44519.1
37004
28199.7
17925
21717.7
37773.5
38643.9
39439.3
40189.7
41080.3
42440.3
44975.3
48576.1
53418.6
59057
61785.2
72951.9
30938.6
31643.1
32234.9
32855.3
33923.3
35827.8
39083.8
44283.2
52327.2
64127.8
81107.2
115744
27458.9
28044.2
28642.1
29373.8
30523.1
32478.9
35824.6
41377.3
50483.1
65629.8
92696.5
146611
25519.7
25933.6
26406.7
27064.1
28149.1
30045.7
33349.5
38979.8
48540.7
65475.4
99411.9
172715
24278.9
24612.1
25063.4
25751.6
26893.7
28828.8
32108
37662.4
47287
64938.5
103211
196338
23819.4
24111.6
24581.4
25334.1
26547.4
28515
31765.5
37240.1
46765.4
64498.9
105549
219580
24301.7
24566.7
25063.9
25884.6
27159
29140.3
32309.2
37591.6
46911.7
64658.2
106989
247103
26266.4
26428.5
26871.6
27679.2
28971.3
30932.1
33977.6
38996.7
47994
65666.8
109251
280197
30504.5
30242.9
30480.4
31115.3
32251.1
34079.3
36899.8
41498.4
49962.5
67164.1
111479
315551
37179.9
36075.6
35854.4
36291
37160.8
38658.3
41045.1
44991.8
52493.7
68580.9
113960
358094
45320.9
43304.2
42457.7
42605.5
43236.1
44280.3
45970.2
48860.9
54476.4
68714.2
114786
415959
2061.6
1834.46
2282.1
2277.6
2228.06
1964.78
1821.38
2604.55
13631.4
34139.6
44089.5
49181.8
5582.72
5049.94
4027.45
3408.55
4130
6561.37
16695.5
23505.9
25196.1
32824.5
35423
36672.1
7921.67
6196.12
6222.94
7501.15
14960.6
20400.5
20916.8
22316.3
24831.7
27829.4
28831.8
29982.2
11133.7
8609.07
10001
12502.2
16960.3
18599.9
18893.5
21077.6
23687.9
25150.8
25952.5
26788.5
13146.3
10531.5
12641.3
13824.2
15772.8
16547.4
18651.8
21136.2
23010.3
23971
24541
25082.4
14506.7
11441.7
12800.6
13428.1
15121.6
16863.8
19268
21544.4
22841.8
23378.8
23689
23992.4
14943.5
11436.7
12390
13551.1
15849.3
18224.1
20649.9
22315.6
23129.6
23439.9
23540.1
23645.1
16151.1
11756.8
12988.1
15363.9
18719
21351.6
23208.9
24143.2
24400.7
24355.6
24238.5
24204
18123
13307
16797.5
21623.3
26072.8
28395.2
29132.7
28887.3
28195.9
27441.1
26809.6
26398.9
22308.9
18387
28426.6
37012.3
42303.7
43401
42000.3
39461.6
36818.3
34498.4
32656.5
31316.2
25787.3
34154.2
55896.3
67975.4
71050.9
68787.3
63175.4
56898
51058.5
46117.9
42189.5
39204.4
97154
97929.9
107928
110202
106191
97055.3
86637.7
76511.4
67435.6
59765.3
53575
48727.3
53393.9
55532.7
56805.2
56999
57070
54434.7
50605.3
44519.2
37004
28199.8
17925
21717.7
37773.6
38644.1
39439.5
40189.9
41080.5
42440.4
44975.4
48576.2
53418.7
59057.1
61785.3
72952
30938.7
31643.2
32235
32855.4
33923.4
35827.9
39083.9
44283.3
52327.4
64127.9
81107.4
115744
27459
28044.4
28642.2
29374
30523.2
32479
35824.8
41377.5
50483.3
65629.9
92696.7
146611
25519.8
25933.7
26406.8
27064.2
28149.2
30045.9
33349.7
38979.9
48540.8
65475.6
99412.1
172715
24279.1
24612.2
25063.5
25751.7
26893.8
28828.9
32108.1
37662.5
47287.1
64938.7
103211
196338
23819.5
24111.7
24581.5
25334.2
26547.5
28515.2
31765.7
37240.2
46765.5
64499
105549
219580
24301.8
24566.9
25064
25884.8
27159.2
29140.4
32309.3
37591.8
46911.9
64658.4
106989
247104
26266.5
26428.6
26871.7
27679.3
28971.4
30932.2
33977.7
38996.8
47994.1
65667
109251
280197
30504.6
30243
30480.5
31115.4
32251.2
34079.4
36899.9
41498.5
49962.6
67164.2
111479
315552
37180
36075.6
35854.5
36291.1
37160.9
38658.4
41045.1
44991.9
52493.7
68581
113960
358095
45321
43304.2
42457.7
42605.5
43236.2
44280.4
45970.3
48860.9
54476.5
68714.3
114786
415960
2061.62
1834.47
2282.13
2277.63
2228.08
1964.81
1821.4
2604.57
13631.4
34139.6
44089.5
49181.8
5582.76
5049.96
4027.48
3408.58
4130.04
6561.4
16695.5
23505.9
25196.1
32824.4
35423
36672.1
7921.72
6196.15
6222.98
7501.22
14960.6
20400.5
20916.8
22316.3
24831.6
27829.3
28831.8
29982.1
11133.8
8609.11
10001
12502.2
16960.3
18599.9
18893.5
21077.6
23687.9
25150.8
25952.5
26788.5
13146.4
10531.5
12641.4
13824.2
15772.8
16547.4
18651.8
21136.2
23010.3
23970.9
24541
25082.4
14506.8
11441.8
12800.7
13428.1
15121.6
16863.8
19268
21544.3
22841.8
23378.8
23689
23992.4
14943.6
11436.7
12390.1
13551.1
15849.3
18224.1
20649.9
22315.6
23129.6
23439.9
23540.1
23645.1
16151.2
11756.8
12988.2
15363.9
18719
21351.6
23208.9
24143.2
24400.7
24355.7
24238.6
24204
18123.1
13307.1
16797.5
21623.4
26072.9
28395.2
29132.8
28887.4
28195.9
27441.2
26809.7
26399
22309.1
18387.1
28426.7
37012.4
42303.8
43401.1
42000.4
39461.7
36818.4
34498.5
32656.6
31316.2
25787.4
34154.3
55896.4
67975.5
71051
68787.4
63175.6
56898.1
51058.6
46118
42189.6
39204.5
97154.2
97930
107928
110202
106191
97055.4
86637.8
76511.5
67435.7
59765.5
53575.1
48727.4
53393.8
55532.7
56805.2
56998.9
57070
54434.6
50605.2
44519.1
37004
28199.7
17924.9
21717.6
37773.5
38644
39439.4
40189.8
41080.4
42440.3
44975.3
48576.1
53418.6
59057
61785.1
72951.8
30938.7
31643.2
32235
32855.4
33923.4
35827.9
39083.8
44283.3
52327.3
64127.8
81107.2
115744
27459
28044.3
28642.2
29373.9
30523.2
32479
35824.7
41377.4
50483.2
65629.8
92696.5
146611
25519.8
25933.7
26406.8
27064.2
28149.2
30045.8
33349.6
38979.9
48540.8
65475.5
99412
172715
24279.1
24612.2
25063.5
25751.7
26893.8
28828.9
32108.1
37662.5
47287.1
64938.6
103211
196338
23819.5
24111.7
24581.5
25334.2
26547.5
28515.1
31765.6
37240.2
46765.5
64499
105549
219580
24301.8
24566.9
25064
25884.8
27159.2
29140.4
32309.3
37591.8
46911.8
64658.3
106989
247103
26266.5
26428.7
26871.8
27679.3
28971.4
30932.2
33977.7
38996.8
47994.1
65666.9
109251
280197
30504.7
30243.1
30480.6
31115.5
32251.3
34079.4
36900
41498.5
49962.6
67164.2
111479
315551
37180.1
36075.7
35854.5
36291.1
37161
38658.4
41045.1
44991.9
52493.7
68581
113960
358094
45321.1
43304.3
42457.8
42605.6
43236.2
44280.4
45970.3
48860.9
54476.5
68714.2
114786
415959
2061.59
1834.45
2282.09
2277.59
2228.05
1964.77
1821.37
2604.52
13631.2
34139.4
44089.3
49181.6
5582.68
5049.9
4027.43
3408.53
4129.97
6561.31
16695.4
23505.8
25195.9
32824.3
35422.8
36672
7921.61
6196.07
6222.89
7501.1
14960.5
20400.4
20916.7
22316.2
24831.5
27829.2
28831.7
29982
11133.6
8609
10000.9
12502.1
16960.2
18599.8
18893.4
21077.5
23687.8
25150.7
25952.4
26788.4
13146.2
10531.4
12641.3
13824.1
15772.7
16547.3
18651.7
21136.1
23010.2
23970.9
24540.9
25082.3
14506.6
11441.6
12800.6
13428.1
15121.5
16863.7
19267.9
21544.3
22841.7
23378.7
23688.9
23992.3
14943.4
11436.6
12390
13551
15849.2
18224
20649.8
22315.5
23129.5
23439.8
23540
23645
16151.1
11756.7
12988.1
15363.8
18718.9
21351.5
23208.8
24143.1
24400.6
24355.6
24238.5
24203.9
18123
13307
16797.4
21623.3
26072.8
28395.1
29132.6
28887.3
28195.8
27441.1
26809.6
26398.9
22308.9
18387
28426.6
37012.3
42303.7
43401
42000.3
39461.6
36818.3
34498.4
32656.5
31316.2
25787.2
34154.2
55896.3
67975.4
71051
68787.3
63175.5
56898
51058.5
46118
42189.6
39204.4
97154
97929.8
107928
110202
106191
97055.3
86637.8
76511.4
67435.7
59765.4
53575.1
48727.4
53393.6
55532.5
56804.9
56998.7
57069.8
54434.5
50605.1
44519
37003.9
28199.7
17924.9
21717.6
37773.4
38643.9
39439.3
40189.7
41080.3
42440.2
44975.2
48576
53418.5
59056.9
61785.1
72951.7
30938.6
31643.1
32234.9
32855.3
33923.3
35827.8
39083.8
44283.2
52327.2
64127.7
81107.1
115744
27458.9
28044.2
28642.1
29373.9
30523.1
32478.9
35824.7
41377.3
50483.1
65629.7
92696.4
146611
25519.7
25933.6
26406.8
27064.1
28149.2
30045.8
33349.6
38979.8
48540.7
65475.4
99411.9
172715
24279
24612.1
25063.4
25751.7
26893.7
28828.9
32108
37662.4
47287
64938.5
103211
196338
23819.4
24111.7
24581.5
25334.2
26547.4
28515.1
31765.6
37240.1
46765.4
64498.9
105549
219580
24301.7
24566.8
25064
25884.7
27159.1
29140.3
32309.3
37591.7
46911.8
64658.2
106989
247103
26266.5
26428.6
26871.7
27679.2
28971.4
30932.2
33977.6
38996.8
47994
65666.8
109251
280196
30504.6
30243
30480.5
31115.4
32251.2
34079.4
36899.9
41498.4
49962.5
67164.1
111479
315551
37180
36075.7
35854.5
36291.1
37160.9
38658.4
41045.1
44991.9
52493.7
68580.9
113960
358094
45321
43304.3
42457.8
42605.6
43236.2
44280.4
45970.3
48860.9
54476.5
68714.2
114786
415959
155210
144517
133824
125092
116624
107332
97566.4
87714.8
78317.4
69906.7
62778.7
56935.2
96449.7
97617.2
97339.6
96783.6
95589.5
93412.1
89977.2
84568.5
78105.3
71925.1
66159.6
61072.1
65684.4
67738.1
69167.8
70510.5
71773.4
72723.6
72677.2
71748
70102.5
67568.5
64149.3
60933.9
51863.1
53416.8
54692.2
55892.3
57139.8
58426.7
59493.7
60244.9
60252.5
59761.5
58819.5
57573.6
52787.7
50369.2
49184.7
48993.4
49210.5
49592.5
50175.9
51498.3
54706.6
63293.4
87258
172863
57500.2
55569.6
54397.9
53630.1
52828.8
52128.2
51607.3
51739.4
52782.7
56267.8
65941.4
90623.7
58797.6
57614.9
56188.1
54596.4
52729.8
50907.1
49327.1
48383
48353.2
49427
53294
61755.8
56321
54626.7
52210.4
49633.5
47121.8
45177.7
43839.6
43253.4
43375.4
44073.5
46157.4
49636.1
155210
144517
133825
125092
116625
107332
97566.5
87714.9
78317.5
69906.8
62778.7
56935.2
96449.9
97617.8
97340.1
96784
95589.9
93412.4
89977.4
84568.6
78105.4
71925.2
66159.6
61072.2
65684.6
67738.4
69168.1
70510.9
71773.7
72723.9
72677.4
71748.1
70102.6
67568.6
64149.4
60933.9
51863.3
53417
54692.4
55892.5
57140
58426.9
59493.9
60245.1
60252.6
59761.6
58819.5
57573.7
52787.8
50369.2
49184.7
48993.4
49210.6
49592.5
50176
51498.4
54706.6
63293.5
87258.1
172863
57500.2
55569.6
54398
53630.2
52828.9
52128.3
51607.4
51739.5
52782.8
56267.8
65941.5
90623.8
58797.6
57615
56188.2
54596.5
52729.8
50907.2
49327.2
48383
48353.3
49427.1
53294.1
61755.9
56321
54626.8
52210.4
49633.5
47121.9
45177.8
43839.7
43253.4
43375.5
44073.6
46157.4
49636.2
155210
144517
133825
125092
116625
107332
97566.6
87715
78317.5
69906.8
62778.8
56935.3
96450
97617.8
97340.1
96784.1
95589.9
93412.4
89977.4
84568.7
78105.5
71925.2
66159.7
61072.2
65684.7
67738.5
69168.2
70510.9
71773.7
72723.9
72677.4
71748.2
70102.6
67568.7
64149.4
60933.9
51863.3
53417.1
54692.4
55892.6
57140.1
58426.9
59493.9
60245.1
60252.6
59761.6
58819.5
57573.7
52787.9
50369.3
49184.8
48993.5
49210.6
49592.5
50176
51498.3
54706.6
63293.4
87258
172863
57500.2
55569.7
54398
53630.2
52828.9
52128.3
51607.3
51739.4
52782.7
56267.8
65941.4
90623.7
58797.7
57615
56188.2
54596.4
52729.8
50907.1
49327.1
48383
48353.3
49427
53294
61755.8
56321
54626.7
52210.4
49633.5
47121.9
45177.7
43839.6
43253.4
43375.4
44073.5
46157.4
49636.1
155210
144517
133825
125092
116625
107332
97566.5
87715
78317.5
69906.8
62778.8
56935.3
96450
97617.8
97340.1
96784
95589.8
93412.3
89977.4
84568.6
78105.4
71925.2
66159.7
61072.2
65684.6
67738.4
69168.1
70510.9
71773.7
72723.8
72677.3
71748.1
70102.6
67568.6
64149.4
60933.9
51863.3
53417
54692.4
55892.5
57140.1
58426.9
59493.9
60245
60252.6
59761.5
58819.5
57573.7
52787.8
50369.3
49184.8
48993.5
49210.6
49592.5
50176
51498.3
54706.6
63293.4
87258
172863
57500.2
55569.7
54398
53630.2
52828.8
52128.3
51607.3
51739.4
52782.7
56267.8
65941.4
90623.8
58797.7
57614.9
56188.2
54596.4
52729.8
50907.1
49327.1
48383
48353.2
49427
53294
61755.7
56321
54626.7
52210.3
49633.5
47121.8
45177.7
43839.6
43253.4
43375.4
44073.4
46157.3
49636
47270.6
48390.9
49501
50583.7
51528.7
52265.8
52775
52830.8
52055.6
50748.7
48939.9
46929.6
44210.5
45290.4
46325.6
47158.9
47756.6
48106.1
47896.1
46825.5
44993.1
42702.5
40237.6
38192.6
41578.6
42534.1
43299.1
43870
44237.3
44220.1
43442.7
42084.7
40312.4
38564.9
37110.7
36094.3
38247.2
38855.7
39374.9
39704.9
39774.2
39389.4
38606.1
37756.6
37226.7
37737.3
39880.5
42522.8
45176.9
42397.5
40271.2
39507.8
39004.3
39176.8
39698.4
40562.9
41688.9
43043.9
44861
46309.5
36894.8
34197
33596.6
34304.6
35159.9
36411.7
37708.2
39091.3
40457.1
41752.7
42883
43603.4
35265.1
30231.3
29660.3
31192.4
32676.3
34356.7
35925.5
37409.1
38680.5
39659.3
40379.9
40954.5
46526.6
28122.5
26744.4
28483.3
30152.5
31893.3
33447.9
34819.9
35843.3
36598.3
37169.8
37677.8
47270.7
48391
49501.1
50583.8
51528.8
52265.9
52775.1
52830.9
52055.7
50748.8
48940
46929.7
44210.7
45290.5
46325.7
47159
47756.7
48106.2
47896.2
46825.6
44993.1
42702.6
40237.7
38192.6
41578.7
42534.1
43299.1
43870.1
44237.3
44220.2
43442.8
42084.8
40312.5
38564.9
37110.8
36094.3
38247.2
38855.8
39374.9
39705
39774.3
39389.5
38606.2
37756.6
37226.7
37737.4
39880.5
42522.8
45176.9
42397.5
40271.3
39507.8
39004.3
39176.9
39698.5
40562.9
41688.9
43043.9
44861
46309.6
36894.8
34197.1
33596.6
34304.6
35160
36411.7
37708.2
39091.4
40457.2
41752.7
42883
43603.4
35265.1
30231.4
29660.3
31192.4
32676.3
34356.7
35925.5
37409.2
38680.5
39659.3
40379.9
40954.4
46526.6
28122.5
26744.4
28483.3
30152.5
31893.2
33447.9
34819.8
35843.3
36598.3
37169.8
37677.8
47270.8
48391.1
49501.2
50583.8
51528.8
52265.9
52775.1
52830.8
52055.6
50748.7
48939.9
46929.6
44210.7
45290.5
46325.7
47159
47756.7
48106.1
47896.1
46825.5
44993
42702.5
40237.6
38192.5
41578.7
42534.1
43299.1
43870
44237.3
44220.1
43442.7
42084.7
40312.4
38564.9
37110.7
36094.2
38247.2
38855.7
39374.9
39704.9
39774.2
39389.4
38606.1
37756.5
37226.7
37737.3
39880.5
42522.8
45176.9
42397.5
40271.2
39507.8
39004.3
39176.8
39698.4
40562.9
41688.9
43043.9
44861
46309.5
36894.7
34197
33596.6
34304.6
35159.9
36411.7
37708.2
39091.3
40457.1
41752.7
42883
43603.4
35265
30231.3
29660.2
31192.4
32676.3
34356.7
35925.4
37409.1
38680.5
39659.3
40379.9
40954.4
46526.6
28122.5
26744.4
28483.2
30152.4
31893.2
33447.9
34819.8
35843.3
36598.3
37169.7
37677.7
47270.8
48391
49501.1
50583.8
51528.8
52265.8
52775.1
52830.8
52055.6
50748.7
48939.9
46929.6
44210.6
45290.4
46325.7
47158.9
47756.7
48106.1
47896.1
46825.5
44993
42702.5
40237.6
38192.5
41578.7
42534.1
43299.1
43870
44237.3
44220.1
43442.7
42084.7
40312.4
38564.8
37110.7
36094.2
38247.2
38855.7
39374.8
39704.9
39774.2
39389.4
38606.1
37756.5
37226.7
37737.3
39880.5
42522.8
45176.8
42397.5
40271.2
39507.8
39004.3
39176.8
39698.4
40562.8
41688.8
43043.8
44860.9
46309.4
36894.7
34197
33596.6
34304.5
35159.9
36411.6
37708.1
39091.3
40457
41752.5
42882.8
43603.3
35265
30231.3
29660.2
31192.4
32676.3
34356.7
35925.4
37409.1
38680.4
39659.2
40379.8
40954.3
46526.5
28122.5
26744.4
28483.2
30152.4
31893.2
33447.8
34819.8
35843.2
36598.2
37169.7
37677.7
33554.6
33809.7
33883.8
33655.9
33018.9
31970.6
30592.8
29072.1
27539.1
25820
24977.1
27127.6
27493.4
27150.3
26412.5
25249.7
23502.1
21117.4
17970.4
13910.9
9023.62
4994.53
2799.16
1806.56
20273.5
19172.3
17549.7
15402.1
12590
9134.37
5223.84
2097.17
648.072
219.157
150.659
123.665
12668.2
10945.8
8751.19
6156.67
3349.99
1196.17
247.836
30.9849
20.1815
11.0816
13.363
12.5654
5800.66
3946.78
2078.33
716.431
129.972
9.98542
8.66534
4.9588
5.68986
5.56592
5.61616
5.5546
1153.33
376.601
76.0424
3.29467
6.76853
4.95007
5.10974
5.11592
5.13737
5.17914
5.23216
5.29561
44.9802
1.2901
5.64502
4.80074
4.83817
4.85797
4.89201
4.93183
4.97235
5.0159
5.0692
5.12617
4.91762
4.50565
4.59886
4.62304
4.64603
4.67652
4.71502
4.75721
4.80229
4.85266
4.91034
4.97237
4.29843
4.33296
4.36492
4.39607
4.42635
4.45774
4.4902
4.52591
4.56591
4.61084
4.66686
4.73706
3.85673
3.88582
3.91231
3.93929
3.96436
3.99194
4.02064
4.05548
4.0938
4.13938
4.19211
4.25787
3.21349
3.21664
3.21666
3.21802
3.21631
3.21553
3.21322
3.21715
3.22313
3.23222
3.24503
3.26882
3.50609
3.36495
3.38105
3.27349
3.28572
3.20568
3.21712
3.16675
3.17888
3.16413
3.17706
3.18844
96925.9
26173.1
23842.6
25547.6
27135.7
28722.3
30057.8
31120.9
31917.4
32515.8
32949.1
33268.8
75237.4
21795.2
20564.8
22238.7
23585.6
24796.1
25770.9
26532
27127.4
27497.2
27655.4
27662.6
60851.6
17891
17204.4
18543
19510.5
20318.7
20974.9
21468.2
21746.4
21785.9
21531.2
21041.2
48852.2
14212.5
13779.6
14637.9
15243.5
15732.2
16065
16197.8
16099.1
15674.7
14987.6
14000.1
38173.9
10740.8
10386.8
10858.2
11158.7
11298.7
11298.4
11013.2
10520.8
9736.61
8719.09
7402.52
28225.2
7580.13
7186.59
7411.72
7423.4
7221.73
6879.13
6306.84
5578
4611.69
3509.63
2275.18
19805
4777.02
4473.56
4404.92
4164.43
3723.86
3220.54
2540.78
1863.72
1116.78
550.43
156.128
12495.8
2451.56
2294.15
1893.13
1682.91
1176.55
851.5
417.962
217.489
35.8659
29.2831
1.58
6059.58
763.935
771.464
388.851
353.105
100.107
82.258
6.35681
10.6763
3.48642
4.44284
4.2285
2235.7
94.5095
105.852
20.3938
24.37
2.86971
5.21175
3.70107
3.8111
3.77766
3.79976
3.82997
555.431
5.83122
8.36488
3.35964
3.73721
3.39484
3.26901
3.27673
3.23898
3.22387
3.21369
3.21672
951.938
6.25277
5.75343
4.88441
4.75954
4.26531
4.27156
3.85666
3.91502
3.63628
3.67473
3.4815
33554.6
33809.8
33883.8
33655.9
33018.9
31970.6
30592.9
29072.2
27539.1
25820
24977.2
27127.7
27493.4
27150.4
26412.6
25249.8
23502.2
21117.4
17970.5
13910.9
9023.67
4994.55
2799.17
1806.57
20273.6
19172.4
17549.8
15402.2
12590.1
9134.42
5223.88
2097.19
648.077
219.16
150.66
123.667
12668.3
10945.9
8751.24
6156.71
3350.03
1196.19
247.841
30.9857
20.1821
11.0822
13.3636
12.566
5800.71
3946.82
2078.36
716.443
129.975
9.98576
8.66564
4.95894
5.69003
5.56612
5.61636
5.55485
1153.35
376.607
76.0443
3.29464
6.76857
4.95004
5.10971
5.1159
5.13736
5.17911
5.23213
5.29559
44.9795
1.28992
5.64499
4.80068
4.83811
4.8579
4.89194
4.93176
4.97228
5.01583
5.06914
5.1261
4.91759
4.5056
4.59882
4.623
4.64598
4.67647
4.71498
4.75717
4.80224
4.85262
4.9103
4.97232
4.29841
4.33294
4.3649
4.39605
4.42632
4.45772
4.49018
4.52588
4.56589
4.61082
4.66683
4.73703
3.85673
3.88581
3.9123
3.93928
3.96435
3.99193
4.02063
4.05547
4.09379
4.13937
4.1921
4.25786
3.21364
3.21664
3.21666
3.21801
3.21631
3.21553
3.21322
3.21715
3.22313
3.23222
3.24503
3.26882
3.50608
3.36495
3.38105
3.27349
3.28572
3.20568
3.21712
3.16675
3.17888
3.16414
3.17706
3.18844
96925.8
26173.1
23842.6
25547.6
27135.7
28722.3
30057.8
31120.9
31917.4
32515.8
32949
33268.7
75237.3
21795.1
20564.8
22238.6
23585.5
24796
25770.9
26532
27127.4
27497.2
27655.4
27662.6
60851.5
17891
17204.3
18542.9
19510.5
20318.6
20974.8
21468.2
21746.3
21785.9
21531.2
21041.1
48852
14212.5
13779.6
14637.8
15243.5
15732.2
16064.9
16197.7
16099.1
15674.6
14987.6
14000
38173.7
10740.7
10386.8
10858.1
11158.6
11298.6
11298.3
11013.1
10520.7
9736.55
8719.02
7402.46
28225
7580.09
7186.55
7411.68
7423.35
7221.68
6879.08
6306.78
5577.94
4611.64
3509.59
2275.15
19804.8
4776.99
4473.53
4404.88
4164.39
3723.82
3220.49
2540.74
1863.69
1116.75
550.416
156.123
12495.7
2451.53
2294.13
1893.1
1682.88
1176.53
851.478
417.947
217.482
35.8641
29.2824
1.58005
6059.51
763.92
771.448
388.839
353.093
100.102
82.2544
6.35635
10.6759
3.48649
4.44286
4.22852
2235.66
94.5062
105.849
20.3927
24.3689
2.86971
5.21166
3.7011
3.81111
3.77768
3.79978
3.82999
555.419
5.83115
8.3647
3.35967
3.7372
3.39486
3.26903
3.27675
3.23899
3.22388
3.21371
3.21674
951.914
6.25278
5.75341
4.88441
4.75954
4.26532
4.27157
3.85666
3.91502
3.63629
3.67474
3.48151
33554.6
33809.7
33883.7
33655.9
33018.8
31970.5
30592.8
29072.1
27539.1
25820
24977.1
27127.6
27493.4
27150.3
26412.5
25249.7
23502.1
21117.3
17970.4
13910.9
9023.63
4994.53
2799.16
1806.56
20273.5
19172.3
17549.7
15402.1
12590
9134.35
5223.84
2097.17
648.073
219.159
150.659
123.666
12668.2
10945.8
8751.18
6156.65
3349.99
1196.17
247.836
30.986
20.1819
11.0823
13.3635
12.566
5800.65
3946.77
2078.33
716.429
129.972
9.98551
8.66574
4.95897
5.69006
5.56616
5.6164
5.55489
1153.32
376.598
76.0425
3.29453
6.76854
4.95008
5.10975
5.11594
5.13739
5.17914
5.23217
5.29563
44.9784
1.2899
5.64499
4.80071
4.83814
4.85794
4.89197
4.93179
4.97232
5.01587
5.06917
5.12614
4.91759
4.50563
4.59885
4.62302
4.64601
4.6765
4.71501
4.75719
4.80227
4.85264
4.91032
4.97235
4.29843
4.33296
4.36492
4.39608
4.42635
4.45774
4.4902
4.52591
4.56591
4.61084
4.66686
4.73706
3.85675
3.88583
3.91232
3.9393
3.96437
3.99196
4.02065
4.05549
4.09382
4.13939
4.19213
4.25788
3.21366
3.21665
3.21668
3.21803
3.21633
3.21555
3.21324
3.21718
3.22315
3.23224
3.24505
3.26885
3.5061
3.36496
3.38107
3.27351
3.28574
3.20569
3.21713
3.16677
3.1789
3.16415
3.17708
3.18846
96925.7
26173
23842.5
25547.6
27135.7
28722.2
30057.8
31120.9
31917.4
32515.8
32949
33268.7
75237.3
21795.1
20564.8
22238.6
23585.5
24796
25770.9
26531.9
27127.3
27497.1
27655.4
27662.5
60851.4
17891
17204.3
18542.9
19510.5
20318.6
20974.8
21468.2
21746.3
21785.8
21531.1
21041.1
48852
14212.5
13779.6
14637.8
15243.5
15732.2
16064.9
16197.7
16099.1
15674.6
14987.6
14000
38173.8
10740.7
10386.8
10858.1
11158.6
11298.6
11298.3
11013.1
10520.7
9736.55
8719.02
7402.46
28225.1
7580.1
7186.55
7411.68
7423.36
7221.68
6879.08
6306.78
5577.94
4611.64
3509.59
2275.14
19804.9
4776.99
4473.53
4404.88
4164.39
3723.82
3220.5
2540.74
1863.69
1116.75
550.417
156.123
12495.7
2451.53
2294.13
1893.1
1682.88
1176.53
851.478
417.947
217.483
35.8643
29.2826
1.58008
6059.53
763.92
771.448
388.838
353.093
100.102
82.2545
6.3564
10.6759
3.4865
4.44287
4.22853
2235.67
94.5061
105.849
20.3926
24.3689
2.86971
5.21166
3.7011
3.81111
3.77769
3.79978
3.83
555.424
5.83117
8.3647
3.35967
3.7372
3.39486
3.26903
3.27674
3.23899
3.22388
3.2137
3.21673
951.931
6.25283
5.75342
4.88442
4.75955
4.26533
4.27158
3.85667
3.91503
3.63629
3.67475
3.48152
33554.6
33809.7
33883.7
33655.8
33018.8
31970.5
30592.8
29072.1
27539.1
25820
24977.1
27127.6
27493.4
27150.3
26412.5
25249.7
23502.1
21117.3
17970.4
13910.8
9023.62
4994.53
2799.16
1806.56
20273.5
19172.3
17549.7
15402.1
12590
9134.35
5223.83
2097.17
648.075
219.16
150.66
123.667
12668.2
10945.8
8751.17
6156.65
3349.98
1196.17
247.837
30.9866
20.1823
11.0827
13.364
12.5665
5800.65
3946.77
2078.33
716.43
129.972
9.98581
8.66582
4.95911
5.69022
5.56633
5.61658
5.55508
1153.32
376.598
76.043
3.29457
6.76862
4.95013
5.1098
5.116
5.13745
5.17919
5.23222
5.29569
44.9787
1.2899
5.64502
4.80073
4.83817
4.85797
4.892
4.93182
4.97234
5.0159
5.0692
5.12617
4.91762
4.50565
4.59887
4.62304
4.64603
4.67652
4.71503
4.75722
4.80229
4.85267
4.91035
4.97237
4.29844
4.33297
4.36493
4.39609
4.42636
4.45775
4.49021
4.52592
4.56592
4.61086
4.66687
4.73707
3.85675
3.88583
3.91232
3.9393
3.96437
3.99196
4.02065
4.05549
4.09382
4.13939
4.19213
4.25789
3.21365
3.21665
3.21668
3.21803
3.21632
3.21554
3.21324
3.21717
3.22315
3.23224
3.24504
3.26884
3.5061
3.36496
3.38107
3.2735
3.28573
3.20569
3.21713
3.16676
3.17889
3.16415
3.17707
3.18845
96925.7
26173
23842.5
25547.6
27135.7
28722.2
30057.8
31120.8
31917.4
32515.8
32949
33268.7
75237.2
21795.1
20564.8
22238.6
23585.5
24796
25770.9
26531.9
27127.3
27497.2
27655.4
27662.6
60851.4
17891
17204.3
18542.9
19510.5
20318.6
20974.8
21468.2
21746.4
21785.9
21531.2
21041.1
48852
14212.5
13779.5
14637.8
15243.5
15732.2
16064.9
16197.7
16099.1
15674.6
14987.6
14000
38173.7
10740.7
10386.8
10858.1
11158.6
11298.6
11298.3
11013.1
10520.7
9736.57
8719.04
7402.47
28225
7580.09
7186.55
7411.68
7423.36
7221.69
6879.09
6306.8
5577.96
4611.65
3509.6
2275.16
19804.8
4776.99
4473.53
4404.88
4164.4
3723.83
3220.51
2540.76
1863.7
1116.76
550.424
156.125
12495.7
2451.53
2294.13
1893.11
1682.89
1176.54
851.49
417.958
217.489
35.8676
29.2846
1.58098
6059.54
763.927
771.455
388.847
353.101
100.108
82.2592
6.35891
10.6782
3.48832
4.44475
4.23045
2235.69
94.511
105.853
20.3957
24.3717
2.87142
5.21343
3.70269
3.81276
3.77938
3.80152
3.8318
555.431
5.8326
8.36653
3.36094
3.73853
3.39616
3.27039
3.27808
3.24017
3.225
3.21452
3.21754
951.936
6.25361
5.75479
4.88531
4.7605
4.26612
4.27243
3.85746
3.91583
3.63705
3.6755
3.48223
)
;

boundaryField
{
    rotor
    {
        type            epsilonWallFunction;
        blending        stepwise;
        value           nonuniform List<scalar> 
192
(
2061.57
1834.44
2282.08
2277.58
2228.04
1964.77
1821.37
2604.53
13631.2
34139.4
44089.3
49181.6
53393.7
55532.5
56805
56998.8
57069.9
54434.5
50605.1
44519.1
37004
28199.7
17925
21717.7
2061.6
1834.46
2282.1
2277.6
2228.06
1964.78
1821.38
2604.55
13631.4
34139.6
44089.5
49181.8
53393.9
55532.7
56805.2
56999
57070
54434.7
50605.3
44519.2
37004
28199.8
17925
21717.7
2061.62
1834.47
2282.13
2277.63
2228.08
1964.81
1821.4
2604.57
13631.4
34139.6
44089.5
49181.8
53393.8
55532.7
56805.2
56998.9
57070
54434.6
50605.2
44519.1
37004
28199.7
17924.9
21717.6
2061.59
1834.45
2282.09
2277.59
2228.05
1964.77
1821.37
2604.52
13631.2
34139.4
44089.3
49181.6
53393.6
55532.5
56804.9
56998.7
57069.8
54434.5
50605.1
44519
37003.9
28199.7
17924.9
21717.6
2061.57
5582.65
7921.56
11133.6
13146.2
14506.5
14943.4
16151
18123
22308.9
25787.3
97153.9
21717.6
72951.7
115744
146611
172715
196338
219580
247103
280196
315551
358094
415959
2061.6
5582.72
7921.67
11133.7
13146.3
14506.7
14943.5
16151.1
18123
22308.9
25787.3
97154
21717.7
72951.9
115744
146611
172715
196338
219580
247103
280197
315551
358094
415959
2061.62
5582.76
7921.72
11133.8
13146.4
14506.8
14943.6
16151.2
18123.1
22309.1
25787.4
97154.2
21717.7
72952
115744
146611
172715
196338
219580
247104
280197
315552
358095
415960
2061.59
5582.68
7921.61
11133.6
13146.2
14506.6
14943.4
16151.1
18123
22308.9
25787.2
97154
21717.6
72951.8
115744
146611
172715
196338
219580
247103
280197
315551
358094
415959
)
;
    }
    stator
    {
        type            epsilonWallFunction;
        blending        stepwise;
        value           nonuniform List<scalar> 
192
(
3.50609
3.36495
3.38105
3.27349
3.28572
3.20568
3.21712
3.16675
3.17888
3.16413
3.17706
3.18844
951.938
6.25277
5.75343
4.88441
4.75954
4.26531
4.27156
3.85666
3.91502
3.63628
3.67473
3.4815
3.50608
3.36495
3.38105
3.27349
3.28572
3.20568
3.21712
3.16675
3.17888
3.16414
3.17706
3.18844
951.914
6.25278
5.75341
4.88441
4.75954
4.26532
4.27157
3.85666
3.91502
3.63629
3.67474
3.48151
3.5061
3.36496
3.38107
3.27351
3.28574
3.20569
3.21713
3.16677
3.1789
3.16415
3.17708
3.18846
951.931
6.25283
5.75342
4.88442
4.75955
4.26533
4.27158
3.85667
3.91503
3.63629
3.67475
3.48152
3.5061
3.36496
3.38107
3.2735
3.28573
3.20569
3.21713
3.16676
3.17889
3.16415
3.17707
3.18845
951.936
6.25361
5.75479
4.88531
4.7605
4.26612
4.27243
3.85746
3.91583
3.63705
3.6755
3.48223
96925.9
75237.4
60851.6
48852.2
38173.9
28225.2
19805
12495.8
6059.58
2235.7
555.431
951.938
27127.6
1806.56
123.665
12.5654
5.5546
5.29561
5.12617
4.97237
4.73706
4.25787
3.26882
3.18844
96925.8
75237.3
60851.5
48852
38173.7
28225
19804.8
12495.7
6059.51
2235.66
555.419
951.914
27127.7
1806.57
123.667
12.566
5.55485
5.29559
5.1261
4.97232
4.73703
4.25786
3.26882
3.18844
96925.7
75237.3
60851.4
48852
38173.8
28225.1
19804.9
12495.7
6059.53
2235.67
555.424
951.931
27127.6
1806.56
123.666
12.566
5.55489
5.29563
5.12614
4.97235
4.73706
4.25788
3.26885
3.18846
96925.7
75237.2
60851.4
48852
38173.7
28225
19804.8
12495.7
6059.54
2235.69
555.431
951.936
27127.6
1806.56
123.667
12.5665
5.55508
5.29569
5.12617
4.97237
4.73707
4.25789
3.26884
3.18845
)
;
    }
    front
    {
        type            empty;
    }
    back
    {
        type            empty;
    }
}


// ************************************************************************* //
