/*--------------------------------*- C++ -*----------------------------------*\
| =========                 |                                                 |
| \\      /  F ield         | OpenFOAM: The Open Source CFD Toolbox           |
|  \\    /   O peration     | Version:  2212                                  |
|   \\  /    A nd           | Website:  www.openfoam.com                      |
|    \\/     M anipulation  |                                                 |
\*---------------------------------------------------------------------------*/
FoamFile
{
    version     2.0;
    format      ascii;
    arch        "LSB;label=32;scalar=64";
    class       volScalarField;
    location    "0.06";
    object      k;
}
// * * * * * * * * * * * * * * * * * * * * * * * * * * * * * * * * * * * * * //

dimensions      [0 2 -2 0 0 0 0];

internalField   nonuniform List<scalar> 
3072
(
2.33966
3.23949
3.74711
3.74218
3.68772
3.39117
3.22409
4.09224
12.3357
22.7499
26.9793
29.0186
4.8946
7.91584
8.4236
8.20439
8.35991
8.03472
12.1361
19.1768
21.9599
31.7384
38.5399
46.3104
6.60631
11.2577
13.107
14.7028
19.3171
21.684
21.8764
26.9445
35.069
44.9783
52.9239
60.1813
8.80664
16.64
18.7256
19.5248
22.146
23.277
27.0723
36.4043
45.9204
54.602
61.6594
67.7259
10.4
20.0476
22.0752
21.9631
23.4489
26.5976
34.8153
45.0527
53.8512
61.2242
67.2589
72.4024
11.6897
22.2251
23.6701
23.5704
26.4211
33.1484
42.8104
51.9907
59.5233
65.6328
70.7131
75.0984
12.5045
23.6398
25.6482
27.0468
32.4599
41.2175
50.1383
57.819
64.0571
69.101
73.3548
77.1033
13.7677
26.9133
30.844
35.7475
44.057
52.0751
59.1282
64.9016
69.5818
73.4073
76.7077
79.7266
15.499
33.328
42.9278
53.3417
62.7684
69.2399
73.6117
76.6124
78.8849
80.7821
82.5785
84.4522
18.5139
42.9674
62.9389
78.4124
88.584
93.247
94.6077
94.2401
93.3481
92.542
92.1516
92.3261
21.1606
56.5492
91.6371
111.478
120.483
122.332
120.437
116.418
112.082
108.203
105.163
103.104
53.064
92.924
130.625
146.956
150.954
149.749
144.634
137.993
131.088
124.756
119.454
115.351
30.6527
31.4659
31.9447
32.0174
32.044
31.0497
29.5759
27.1543
24.0053
20.028
14.8063
11.2433
53.1715
58.933
62.9208
64.9219
65.0051
64.3062
62.9447
60.4605
55.7727
45.8508
32.7964
27.1549
66.0863
70.4187
73.2476
74.7818
75.521
75.8738
75.8909
75.287
73.132
67.0153
50.3155
39.4837
72.64
76.4801
79.3753
81.4815
83.1076
84.5608
86.0665
87.476
87.8111
85.0873
71.4014
49.1095
76.6496
80.1388
83.007
85.4319
87.7001
90.1345
93.0255
96.3483
99.0922
99.3016
89.7554
57.9056
78.863
82.1486
85.0953
87.8914
90.8245
94.2507
98.5031
103.657
109.147
112.371
107.739
66.3893
80.4709
83.5978
86.6307
89.7665
93.2955
97.5977
103.073
109.928
117.74
124.142
124.083
75.0174
82.6052
85.4749
88.4845
91.8292
95.79
100.763
107.23
115.589
125.652
134.995
138.162
84.8491
86.5054
88.8331
91.5782
94.9088
99.0589
104.404
111.484
120.961
133.083
145.483
150.875
96.1893
93.0981
94.5133
96.7066
99.7663
103.835
109.206
116.373
126.283
139.891
155.572
164.672
108.282
102.347
102.947
104.368
106.802
110.53
115.588
122.228
131.581
145.345
164.037
180.26
122.252
112.982
112.905
113.967
115.876
118.906
123.272
128.738
136.452
148.056
167.997
194.448
139.914
2.33968
3.23952
3.74713
3.7422
3.68773
3.39118
3.2241
4.09226
12.3358
22.75
26.9794
29.0187
4.89464
7.91588
8.42363
8.20441
8.35991
8.03473
12.1361
19.1769
21.96
31.7386
38.54
46.3106
6.60637
11.2577
13.1071
14.7029
19.3171
21.684
21.8764
26.9446
35.0692
44.9785
52.9242
60.1815
8.80673
16.6401
18.7257
19.5248
22.146
23.277
27.0725
36.4046
45.9207
54.6022
61.6597
67.7262
10.4001
20.0477
22.0753
21.9631
23.449
26.5978
34.8156
45.053
53.8515
61.2245
67.2592
72.4028
11.6898
22.2252
23.6702
23.5705
26.4213
33.1487
42.8108
51.991
59.5237
65.6332
70.7134
75.0987
12.5046
23.64
25.6484
27.0471
32.4603
41.2179
50.1387
57.8194
64.0574
69.1014
73.3552
77.1037
13.7678
26.9135
30.8443
35.7479
44.0575
52.0755
59.1286
64.902
69.5822
73.4077
76.7081
79.727
15.499
33.328
42.928
53.342
62.7687
69.2402
73.6121
76.6128
78.8853
80.7825
82.5789
84.4526
18.5139
42.9674
62.939
78.4125
88.5842
93.2472
94.608
94.2404
93.3484
92.5423
92.152
92.3265
21.1606
56.5492
91.6371
111.478
120.483
122.332
120.438
116.419
112.082
108.203
105.164
103.104
53.0641
92.9241
130.625
146.956
150.954
149.749
144.635
137.993
131.088
124.756
119.455
115.351
30.6527
31.466
31.9448
32.0174
32.044
31.0498
29.576
27.1544
24.0053
20.0281
14.8063
11.2434
53.1716
58.9332
62.921
64.9221
65.0053
64.3063
62.9448
60.4607
55.7728
45.8509
32.7965
27.1549
66.0865
70.4189
73.2478
74.782
75.5212
75.874
75.8912
75.2872
73.1322
67.0155
50.3156
39.4838
72.6403
76.4804
79.3756
81.4818
83.1079
84.5611
86.0667
87.4763
87.8113
85.0875
71.4016
49.1096
76.6499
80.1391
83.0073
85.4323
87.7004
90.1348
93.0258
96.3486
99.0924
99.3018
89.7555
57.9057
78.8633
82.1489
85.0956
87.8918
90.8249
94.2511
98.5034
103.657
109.147
112.371
107.739
66.3894
80.4713
83.5982
86.6311
89.7669
93.2959
97.5981
103.073
109.928
117.74
124.142
124.083
75.0175
82.6056
85.4753
88.4849
91.8296
95.7904
100.764
107.231
115.59
125.652
134.995
138.162
84.8492
86.5058
88.8335
91.5786
94.9091
99.0593
104.405
111.484
120.961
133.083
145.484
150.875
96.1894
93.0984
94.5137
96.7069
99.7666
103.835
109.206
116.373
126.283
139.891
155.572
164.672
108.283
102.347
102.947
104.369
106.803
110.53
115.588
122.229
131.581
145.345
164.038
180.261
122.252
112.982
112.905
113.967
115.876
118.906
123.272
128.739
136.452
148.056
167.997
194.448
139.914
2.33969
3.23953
3.74715
3.74223
3.68776
3.39121
3.22413
4.09228
12.3358
22.7499
26.9794
29.0187
4.89466
7.91593
8.4237
8.20449
8.35999
8.03478
12.1361
19.1768
21.96
31.7386
38.54
46.3105
6.6064
11.2578
13.1072
14.703
19.3172
21.6841
21.8764
26.9446
35.0692
44.9785
52.9241
60.1815
8.80676
16.6402
18.7258
19.5249
22.146
23.277
27.0725
36.4046
45.9207
54.6022
61.6597
67.7261
10.4001
20.0478
22.0754
21.9632
23.449
26.5978
34.8156
45.053
53.8515
61.2245
67.2592
72.4027
11.6899
22.2253
23.6703
23.5705
26.4213
33.1487
42.8108
51.991
59.5236
65.6332
70.7134
75.0987
12.5046
23.64
25.6484
27.0471
32.4603
41.2179
50.1387
57.8194
64.0575
69.1014
73.3552
77.1037
13.7678
26.9136
30.8444
35.7479
44.0575
52.0756
59.1287
64.902
69.5822
73.4077
76.7081
79.727
15.4991
33.3281
42.9281
53.3421
62.7688
69.2403
73.6122
76.6129
78.8854
80.7826
82.579
84.4527
18.5139
42.9675
62.9391
78.4126
88.5843
93.2473
94.6081
94.2405
93.3486
92.5425
92.1521
92.3266
21.1607
56.5493
91.6372
111.478
120.483
122.332
120.438
116.419
112.082
108.203
105.164
103.104
53.0642
92.9242
130.625
146.957
150.954
149.749
144.635
137.993
131.088
124.757
119.455
115.352
30.6527
31.4659
31.9448
32.0174
32.044
31.0498
29.5759
27.1544
24.0053
20.028
14.8063
11.2433
53.1716
58.9331
62.921
64.922
65.0052
64.3063
62.9447
60.4606
55.7727
45.8509
32.7964
27.1548
66.0865
70.4189
73.2478
74.782
75.5212
75.8739
75.8911
75.2871
73.1321
67.0154
50.3155
39.4837
72.6402
76.4804
79.3756
81.4817
83.1078
84.5611
86.0666
87.4762
87.8112
85.0874
71.4015
49.1095
76.6499
80.139
83.0073
85.4322
87.7003
90.1348
93.0257
96.3485
99.0923
99.3017
89.7554
57.9057
78.8633
82.1489
85.0956
87.8917
90.8248
94.251
98.5034
103.657
109.147
112.371
107.739
66.3893
80.4713
83.5982
86.6311
89.7669
93.2959
97.5981
103.073
109.928
117.74
124.142
124.083
75.0174
82.6056
85.4753
88.4849
91.8296
95.7904
100.764
107.231
115.59
125.652
134.995
138.162
84.8492
86.5059
88.8335
91.5786
94.9092
99.0593
104.405
111.484
120.961
133.083
145.484
150.875
96.1893
93.0985
94.5138
96.707
99.7667
103.835
109.206
116.373
126.283
139.891
155.572
164.672
108.282
102.347
102.947
104.369
106.803
110.53
115.588
122.229
131.581
145.345
164.037
180.26
122.252
112.983
112.905
113.968
115.876
118.906
123.272
128.739
136.452
148.056
167.997
194.448
139.914
2.33967
3.2395
3.74711
3.74218
3.68772
3.39117
3.22409
4.09224
12.3357
22.7499
26.9793
29.0186
4.89461
7.91585
8.4236
8.20439
8.3599
8.0347
12.136
19.1768
21.9599
31.7384
38.5399
46.3104
6.60634
11.2577
13.107
14.7028
19.3171
21.684
21.8763
26.9445
35.069
44.9783
52.924
60.1813
8.80668
16.6401
18.7256
19.5247
22.1459
23.277
27.0723
36.4044
45.9205
54.602
61.6595
67.7259
10.4001
20.0476
22.0752
21.9631
23.4489
26.5976
34.8154
45.0528
53.8513
61.2243
67.259
72.4025
11.6898
22.2251
23.6701
23.5704
26.4211
33.1485
42.8106
51.9908
59.5234
65.6329
70.7132
75.0985
12.5045
23.6399
25.6482
27.0469
32.4601
41.2177
50.1385
57.8191
64.0572
69.1012
73.355
77.1035
13.7677
26.9134
30.8442
35.7477
44.0573
52.0753
59.1284
64.9018
69.582
73.4075
76.7079
79.7268
15.499
33.328
42.9279
53.3419
62.7686
69.2401
73.6119
76.6126
78.8852
80.7824
82.5788
84.4525
18.5138
42.9673
62.9389
78.4124
88.5841
93.2471
94.6079
94.2403
93.3484
92.5423
92.1519
92.3264
21.1606
56.5492
91.637
111.478
120.483
122.332
120.438
116.419
112.082
108.203
105.164
103.104
53.0641
92.9241
130.625
146.956
150.954
149.749
144.635
137.993
131.088
124.756
119.455
115.351
30.6526
31.4659
31.9447
32.0173
32.0439
31.0497
29.5759
27.1543
24.0053
20.028
14.8063
11.2433
53.1715
58.933
62.9208
64.9219
65.0051
64.3062
62.9446
60.4605
55.7727
45.8508
32.7964
27.1548
66.0863
70.4187
73.2476
74.7818
75.521
75.8738
75.891
75.287
73.132
67.0153
50.3155
39.4837
72.64
76.4802
79.3754
81.4816
83.1077
84.5609
86.0665
87.4761
87.8111
85.0873
71.4014
49.1095
76.6497
80.1389
83.0071
85.432
87.7002
90.1346
93.0256
96.3484
99.0922
99.3016
89.7554
57.9056
78.8631
82.1487
85.0954
87.8915
90.8247
94.2509
98.5032
103.657
109.147
112.371
107.739
66.3893
80.4711
83.598
86.6309
89.7667
93.2957
97.5979
103.073
109.928
117.74
124.142
124.083
75.0174
82.6054
85.4751
88.4847
91.8295
95.7902
100.763
107.23
115.589
125.652
134.995
138.162
84.8491
86.5057
88.8333
91.5784
94.909
99.0591
104.404
111.484
120.961
133.083
145.483
150.875
96.1893
93.0983
94.5136
96.7068
99.7665
103.835
109.206
116.373
126.283
139.891
155.572
164.672
108.282
102.347
102.947
104.369
106.803
110.53
115.588
122.229
131.581
145.345
164.037
180.26
122.252
112.982
112.905
113.967
115.876
118.906
123.272
128.739
136.452
148.056
167.997
194.448
139.914
164.535
161.696
162.434
163.773
163.59
161.655
157.032
150.875
143.955
137.19
131.153
126.127
164.807
158.329
155.622
155.418
155.966
155.683
154.207
151.242
146.842
142.054
137.302
133.038
152.819
148.894
145.66
144.123
143.951
144.286
144.442
143.958
142.783
140.757
138.227
135.974
139.974
138.33
136.426
134.869
134.324
134.565
135.216
135.869
136.304
136.302
136.019
135.782
123.152
122.898
123.847
125.453
127.809
130.913
134.418
139.385
147.507
163.407
192.228
183.82
131.071
131.387
132.268
133.356
134.45
135.422
136.791
139.243
143.581
152.471
172.793
172.303
135.958
136.557
136.835
136.612
135.916
134.947
134.438
134.717
136.539
140.814
152.716
155.359
136.691
136.271
134.702
132.647
130.246
128.515
127.683
127.783
129.144
131.529
137.913
140.951
164.535
161.697
162.435
163.773
163.59
161.655
157.032
150.875
143.955
137.19
131.153
126.127
164.807
158.33
155.623
155.418
155.966
155.683
154.207
151.242
146.842
142.054
137.302
133.038
152.819
148.895
145.661
144.123
143.952
144.286
144.442
143.958
142.783
140.757
138.227
135.974
139.975
138.33
136.427
134.869
134.324
134.565
135.216
135.869
136.304
136.302
136.019
135.782
123.152
122.898
123.848
125.453
127.809
130.913
134.418
139.385
147.507
163.408
192.228
183.82
131.071
131.387
132.268
133.356
134.45
135.422
136.791
139.244
143.581
152.471
172.794
172.303
135.958
136.557
136.835
136.612
135.916
134.947
134.438
134.718
136.539
140.814
152.717
155.36
136.691
136.271
134.703
132.647
130.246
128.515
127.683
127.783
129.144
131.53
137.913
140.951
164.535
161.697
162.435
163.773
163.59
161.655
157.032
150.875
143.955
137.19
131.153
126.127
164.807
158.33
155.623
155.418
155.967
155.683
154.207
151.242
146.842
142.054
137.302
133.038
152.819
148.895
145.661
144.124
143.952
144.286
144.442
143.958
142.784
140.757
138.227
135.974
139.975
138.33
136.427
134.869
134.325
134.566
135.216
135.869
136.304
136.302
136.019
135.782
123.152
122.898
123.848
125.453
127.809
130.913
134.418
139.385
147.507
163.407
192.228
183.82
131.071
131.387
132.268
133.356
134.45
135.422
136.791
139.244
143.581
152.471
172.793
172.303
135.958
136.557
136.835
136.612
135.916
134.947
134.438
134.717
136.539
140.814
152.717
155.359
136.691
136.271
134.702
132.647
130.246
128.515
127.683
127.783
129.144
131.529
137.913
140.951
164.535
161.697
162.435
163.773
163.59
161.655
157.032
150.875
143.955
137.19
131.153
126.127
164.807
158.33
155.623
155.418
155.966
155.683
154.207
151.242
146.842
142.054
137.302
133.038
152.819
148.895
145.661
144.123
143.952
144.286
144.442
143.958
142.783
140.757
138.227
135.974
139.975
138.33
136.427
134.869
134.324
134.565
135.216
135.869
136.304
136.302
136.019
135.782
123.152
122.898
123.848
125.453
127.809
130.913
134.418
139.385
147.507
163.407
192.228
183.82
131.071
131.387
132.268
133.356
134.45
135.422
136.791
139.244
143.581
152.471
172.793
172.303
135.958
136.557
136.835
136.612
135.916
134.947
134.438
134.717
136.539
140.814
152.716
155.359
136.691
136.271
134.702
132.647
130.246
128.515
127.682
127.783
129.144
131.529
137.913
140.95
128.93
128.074
127.489
127.489
127.877
128.476
128.973
129.177
128.904
128.171
127.368
126.935
121.601
121.571
121.712
122.074
122.39
122.409
121.616
119.983
117.461
114.507
111.941
111.072
114.961
115.116
115.216
115.228
114.689
113.373
111.036
107.719
103.624
99.5597
96.5542
96.3299
106.646
106.472
105.87
104.858
102.996
100.214
96.455
91.9574
87.2036
83.1846
81.0763
80.9833
127.188
124.885
121.853
121.133
120.664
121.3
122.457
124.082
126.096
128.435
130.34
130.638
112.277
112.403
111.143
112.409
113.893
115.995
118.095
120.191
121.93
123.089
123.738
122.973
100.285
102.875
102.631
105.315
107.832
110.569
112.969
114.801
116.03
116.736
116.773
115.724
87.3418
94.467
94.9176
98.0924
100.959
103.665
105.762
107.273
108.305
108.688
108.287
107.268
128.931
128.074
127.49
127.489
127.877
128.476
128.973
129.178
128.904
128.171
127.368
126.935
121.601
121.571
121.712
122.074
122.39
122.409
121.616
119.983
117.461
114.507
111.941
111.072
114.962
115.116
115.216
115.228
114.689
113.373
111.036
107.719
103.624
99.5598
96.5542
96.33
106.647
106.472
105.87
104.858
102.996
100.214
96.4551
91.9575
87.2037
83.1847
81.0764
80.9834
127.188
124.886
121.853
121.133
120.664
121.3
122.457
124.083
126.096
128.436
130.34
130.638
112.277
112.403
111.143
112.409
113.893
115.995
118.095
120.191
121.93
123.089
123.738
122.973
100.285
102.875
102.631
105.315
107.832
110.569
112.969
114.801
116.03
116.736
116.773
115.724
87.3418
94.467
94.9176
98.0924
100.959
103.665
105.762
107.273
108.305
108.688
108.287
107.268
128.931
128.074
127.49
127.489
127.877
128.476
128.973
129.178
128.904
128.171
127.368
126.935
121.601
121.571
121.712
122.074
122.39
122.409
121.616
119.983
117.461
114.507
111.941
111.072
114.962
115.116
115.216
115.228
114.689
113.373
111.036
107.719
103.624
99.5597
96.5541
96.3299
106.646
106.472
105.87
104.858
102.996
100.214
96.455
91.9573
87.2036
83.1846
81.0763
80.9833
127.188
124.885
121.853
121.133
120.664
121.3
122.457
124.082
126.096
128.435
130.34
130.638
112.277
112.403
111.143
112.409
113.893
115.995
118.095
120.191
121.93
123.089
123.738
122.973
100.285
102.875
102.631
105.315
107.832
110.569
112.969
114.801
116.03
116.736
116.773
115.724
87.3417
94.4669
94.9176
98.0923
100.959
103.665
105.762
107.273
108.305
108.688
108.287
107.268
128.931
128.074
127.49
127.489
127.877
128.476
128.973
129.177
128.904
128.171
127.368
126.935
121.601
121.571
121.712
122.074
122.39
122.409
121.616
119.983
117.461
114.507
111.941
111.072
114.962
115.116
115.216
115.228
114.689
113.373
111.036
107.719
103.624
99.5596
96.5541
96.3298
106.646
106.472
105.87
104.858
102.996
100.214
96.4549
91.9573
87.2035
83.1846
81.0763
80.9833
127.188
124.885
121.853
121.133
120.664
121.3
122.456
124.082
126.096
128.435
130.34
130.638
112.277
112.403
111.143
112.409
113.893
115.995
118.095
120.191
121.93
123.089
123.737
122.973
100.285
102.875
102.631
105.315
107.832
110.569
112.969
114.801
116.03
116.736
116.773
115.724
87.3417
94.4669
94.9175
98.0922
100.959
103.665
105.762
107.273
108.304
108.688
108.287
107.268
95.3996
94.296
92.4431
89.8986
86.2547
81.5035
75.5537
68.4709
60.2606
50.6363
38.9256
29.1927
80.7463
78.2486
74.717
70.1924
64.2594
56.8345
47.6358
36.4884
23.4621
12.1678
6.19244
4.90777
63.0335
58.8969
53.5118
46.8798
38.657
28.8621
17.5268
7.45426
2.31985
0.962441
0.822625
0.839711
43.3407
37.6702
30.7575
22.6476
13.4235
5.34047
1.21168
0.262191
0.195644
0.18169
0.184941
0.18682
23.4369
16.8673
9.7513
3.78106
0.817823
0.143879
0.129668
0.110721
0.114549
0.113121
0.112462
0.110693
6.34303
2.34274
0.580695
0.103158
0.122242
0.108967
0.109873
0.109556
0.109553
0.109374
0.109409
0.109413
0.393707
0.105122
0.115424
0.108177
0.108434
0.108568
0.108707
0.108814
0.10887
0.108948
0.109084
0.109186
0.11041
0.106627
0.106859
0.107136
0.1074
0.107657
0.107883
0.108118
0.108342
0.108582
0.108828
0.109049
0.104368
0.104624
0.104895
0.105189
0.105486
0.105795
0.106085
0.106364
0.106633
0.1069
0.107206
0.107554
0.098307
0.0986094
0.0989001
0.0992347
0.0995486
0.0998984
0.100228
0.100585
0.100915
0.101267
0.101624
0.101994
0.0828542
0.0832087
0.0835563
0.08391
0.0842681
0.0846429
0.0850256
0.0854243
0.0858334
0.0862499
0.0866649
0.0870278
0.0491108
0.0477838
0.0479362
0.046914
0.0470308
0.0462639
0.0463739
0.0458885
0.0460057
0.0458633
0.0459881
0.0460979
68.2275
84.7382
86.8186
89.8878
92.5378
94.7742
96.4693
97.7594
98.4549
98.4674
97.6169
96.4445
58.9665
74.1092
77.7
80.2994
82.4105
84.1342
85.4703
86.3139
86.509
85.8399
84.4601
82.7311
52.3376
64.1775
67.4542
69.4921
71.044
72.2657
73.0068
73.188
72.5525
71.0624
68.9526
66.304
46.1914
54.0959
56.4847
58.0359
58.9719
59.4523
59.4587
58.6272
57.0664
54.7038
51.7046
47.9584
40.0126
43.9503
45.461
46.2987
46.5077
46.0702
45.0674
43.2682
40.8423
37.6249
33.7528
29.0352
33.3849
34.0771
34.6498
34.5756
33.8816
32.4678
30.5953
27.9761
24.888
21.0049
16.558
11.4463
26.8837
23.9799
24.2985
22.8647
21.6825
19.3979
16.9942
13.7582
10.4632
6.71261
3.58984
1.19861
20.1568
14.4081
14.5638
11.8261
10.722
7.73611
5.7862
3.12695
1.68558
0.420543
0.282698
0.091093
12.6741
5.65423
5.96673
3.27238
2.91167
1.00377
0.765693
0.157616
0.167844
0.0971363
0.105947
0.103941
6.63826
0.962297
1.09517
0.303574
0.316362
0.0948795
0.113861
0.0954847
0.0980816
0.0974941
0.0978416
0.0980869
2.66983
0.100509
0.132637
0.0767993
0.0843402
0.0796419
0.0811437
0.0813556
0.0815335
0.0818305
0.0821436
0.0824949
2.05921
0.0722233
0.0683251
0.061259
0.0602105
0.0559667
0.0560213
0.0523323
0.0528589
0.0503192
0.0506733
0.048881
95.3998
94.2962
92.4433
89.8987
86.2549
81.5036
75.5538
68.4711
60.2607
50.6364
38.9257
29.1927
80.7465
78.2488
74.7172
70.1926
64.2596
56.8346
47.6359
36.4885
23.4622
12.1678
6.19245
4.90779
63.0337
58.8971
53.5119
46.88
38.6571
28.8622
17.5269
7.45432
2.31987
0.962453
0.822633
0.839721
43.3409
37.6703
30.7577
22.6477
13.4236
5.34053
1.2117
0.262199
0.195649
0.181697
0.184947
0.186826
23.437
16.8674
9.7514
3.78111
0.81784
0.143882
0.12967
0.110723
0.114552
0.113124
0.112465
0.110696
6.34311
2.34277
0.580706
0.103157
0.122242
0.108966
0.109872
0.109556
0.109553
0.109373
0.109408
0.109413
0.393695
0.105117
0.115423
0.108176
0.108433
0.108567
0.108706
0.108813
0.108869
0.108947
0.109083
0.109186
0.11041
0.106626
0.106858
0.107136
0.107399
0.107656
0.107883
0.108118
0.108341
0.108581
0.108827
0.109048
0.104368
0.104624
0.104895
0.105189
0.105486
0.105795
0.106085
0.106364
0.106632
0.1069
0.107206
0.107554
0.0983069
0.0986092
0.0988999
0.0992345
0.0995484
0.0998983
0.100228
0.100585
0.100915
0.101267
0.101623
0.101993
0.0828542
0.0832087
0.0835563
0.0839099
0.0842681
0.0846429
0.0850256
0.0854243
0.0858334
0.0862499
0.0866649
0.0870278
0.0491108
0.0477838
0.0479362
0.046914
0.0470308
0.0462639
0.0463739
0.0458886
0.0460057
0.0458633
0.0459881
0.0460979
68.2275
84.7381
86.8186
89.8878
92.5377
94.7741
96.4692
97.7594
98.4548
98.4673
97.6168
96.4444
58.9665
74.1091
77.6999
80.2993
82.4104
84.1341
85.4702
86.3138
86.5089
85.8398
84.4599
82.731
52.3376
64.1774
67.454
69.492
71.0439
72.2656
73.0067
73.1878
72.5524
71.0623
68.9524
66.3039
46.1913
54.0958
56.4846
58.0357
58.9717
59.4522
59.4585
58.627
57.0662
54.7036
51.7044
47.9582
40.0125
43.9501
45.4608
46.2986
46.5075
46.0701
45.0673
43.268
40.8421
37.6247
33.7526
29.035
33.3847
34.077
34.6496
34.5754
33.8815
32.4676
30.5951
27.976
24.8879
21.0047
16.5579
11.4461
26.8836
23.9798
24.2984
22.8645
21.6823
19.3977
16.994
13.758
10.4631
6.71249
3.58976
1.19858
20.1566
14.408
14.5637
11.8259
10.7218
7.73596
5.78608
3.12685
1.68553
0.420524
0.282696
0.0910932
12.6739
5.65414
5.96663
3.27229
2.91159
1.00373
0.765664
0.157611
0.16784
0.0971371
0.105948
0.103941
6.63818
0.962271
1.09514
0.303562
0.316351
0.0948791
0.113861
0.0954851
0.0980818
0.0974945
0.097842
0.0980873
2.66979
0.100508
0.132635
0.0767997
0.0843402
0.0796422
0.081144
0.0813559
0.0815338
0.0818308
0.0821439
0.0824952
2.05918
0.0722234
0.0683249
0.061259
0.0602105
0.0559667
0.0560213
0.0523323
0.0528589
0.0503193
0.0506734
0.0488811
95.3997
94.296
92.4431
89.8986
86.2547
81.5035
75.5537
68.4709
60.2606
50.6364
38.9256
29.1927
80.7463
78.2486
74.717
70.1924
64.2594
56.8344
47.6358
36.4884
23.4621
12.1678
6.19244
4.90777
63.0335
58.8969
53.5117
46.8798
38.6569
28.8621
17.5267
7.45426
2.31986
0.962451
0.822628
0.839717
43.3407
37.6702
30.7575
22.6476
13.4235
5.34046
1.21168
0.262199
0.195649
0.181697
0.184947
0.186826
23.4369
16.8673
9.75128
3.78105
0.817825
0.14388
0.129672
0.110724
0.114552
0.113124
0.112466
0.110697
6.34301
2.34272
0.580696
0.103157
0.122242
0.108967
0.109873
0.109556
0.109553
0.109374
0.109409
0.109413
0.393688
0.105117
0.115424
0.108177
0.108434
0.108568
0.108707
0.108813
0.10887
0.108948
0.109084
0.109186
0.11041
0.106626
0.106859
0.107136
0.1074
0.107657
0.107883
0.108118
0.108341
0.108582
0.108827
0.109048
0.104368
0.104624
0.104895
0.105189
0.105486
0.105795
0.106085
0.106364
0.106633
0.1069
0.107206
0.107554
0.0983072
0.0986096
0.0989003
0.0992349
0.0995488
0.0998987
0.100228
0.100585
0.100915
0.101268
0.101624
0.101994
0.0828545
0.083209
0.0835566
0.0839103
0.0842684
0.0846432
0.0850259
0.0854247
0.0858337
0.0862503
0.0866652
0.0870282
0.0491109
0.047784
0.0479363
0.0469142
0.0470309
0.046264
0.046374
0.0458887
0.0460059
0.0458635
0.0459883
0.0460981
68.2275
84.7381
86.8185
89.8877
92.5377
94.7741
96.4692
97.7593
98.4548
98.4673
97.6168
96.4443
58.9664
74.1091
77.6999
80.2992
82.4104
84.134
85.4701
86.3137
86.5088
85.8398
84.4599
82.7309
52.3376
64.1774
67.454
69.492
71.0438
72.2656
73.0067
73.1878
72.5523
71.0622
68.9524
66.3038
46.1913
54.0958
56.4846
58.0357
58.9717
59.4521
59.4585
58.627
57.0662
54.7036
51.7044
47.9582
40.0125
43.9501
45.4608
46.2985
46.5075
46.0701
45.0673
43.268
40.8421
37.6247
33.7526
29.035
33.3848
34.077
34.6496
34.5754
33.8815
32.4676
30.5951
27.976
24.8879
21.0047
16.5579
11.4461
26.8836
23.9798
24.2984
22.8645
21.6823
19.3977
16.994
13.758
10.4631
6.71249
3.58976
1.19858
20.1567
14.408
14.5637
11.8259
10.7218
7.73595
5.78607
3.12685
1.68553
0.420524
0.2827
0.0910937
12.674
5.65413
5.96663
3.27229
2.91159
1.00373
0.765663
0.157611
0.167841
0.0971373
0.105948
0.103942
6.63821
0.962268
1.09514
0.303561
0.31635
0.0948791
0.113861
0.0954851
0.0980819
0.0974945
0.097842
0.0980873
2.66981
0.100508
0.132635
0.0767996
0.0843402
0.0796422
0.0811439
0.0813558
0.0815338
0.0818307
0.0821438
0.0824951
2.0592
0.0722237
0.0683249
0.0612591
0.0602106
0.0559668
0.0560214
0.0523324
0.052859
0.0503193
0.0506734
0.0488811
95.3997
94.296
92.4431
89.8985
86.2546
81.5034
75.5536
68.4709
60.2606
50.6363
38.9256
29.1927
80.7463
78.2486
74.717
70.1923
64.2594
56.8344
47.6358
36.4883
23.4621
12.1678
6.19244
4.90778
63.0335
58.8969
53.5117
46.8798
38.6569
28.862
17.5267
7.45427
2.31986
0.962457
0.822634
0.839723
43.3407
37.6701
30.7575
22.6475
13.4235
5.34047
1.21168
0.262203
0.195655
0.181701
0.184951
0.18683
23.4369
16.8673
9.75128
3.78106
0.817829
0.143883
0.129674
0.110726
0.114554
0.113127
0.112468
0.1107
6.34301
2.34273
0.580699
0.103158
0.122243
0.108967
0.109873
0.109557
0.109554
0.109375
0.10941
0.109414
0.39369
0.105117
0.115424
0.108177
0.108434
0.108568
0.108707
0.108814
0.10887
0.108948
0.109084
0.109186
0.11041
0.106626
0.106859
0.107137
0.1074
0.107657
0.107884
0.108119
0.108342
0.108582
0.108828
0.109049
0.104368
0.104624
0.104895
0.105189
0.105486
0.105796
0.106085
0.106364
0.106633
0.1069
0.107206
0.107554
0.0983073
0.0986096
0.0989003
0.0992349
0.0995488
0.0998987
0.100228
0.100585
0.100915
0.101268
0.101624
0.101994
0.0828544
0.0832089
0.0835565
0.0839102
0.0842683
0.0846432
0.0850258
0.0854246
0.0858336
0.0862502
0.0866651
0.0870281
0.0491109
0.047784
0.0479363
0.0469142
0.0470309
0.046264
0.046374
0.0458887
0.0460058
0.0458634
0.0459882
0.046098
68.2275
84.738
86.8185
89.8877
92.5376
94.774
96.4691
97.7592
98.4547
98.4672
97.6167
96.4443
58.9664
74.109
77.6998
80.2992
82.4104
84.134
85.4701
86.3137
86.5088
85.8398
84.4599
82.731
52.3375
64.1774
67.454
69.4919
71.0438
72.2656
73.0066
73.1878
72.5524
71.0623
68.9525
66.3039
46.1913
54.0957
56.4846
58.0357
58.9717
59.4521
59.4585
58.627
57.0662
54.7037
51.7044
47.9583
40.0124
43.9501
45.4608
46.2985
46.5075
46.0701
45.0673
43.2681
40.8421
37.6248
33.7526
29.0351
33.3847
34.077
34.6496
34.5754
33.8815
32.4676
30.5951
27.976
24.8879
21.0048
16.5579
11.4462
26.8836
23.9798
24.2984
22.8645
21.6824
19.3978
16.994
13.7581
10.4632
6.71255
3.58981
1.19861
20.1567
14.408
14.5637
11.826
10.7219
7.73604
5.78616
3.12693
1.68559
0.420569
0.282721
0.0911065
12.674
5.6542
5.96669
3.27236
2.91166
1.00379
0.765717
0.157648
0.167875
0.0971649
0.105976
0.103969
6.63824
0.962322
1.09519
0.303603
0.31639
0.0949077
0.11389
0.095512
0.0981093
0.0975219
0.0978694
0.0981146
2.66983
0.100527
0.132659
0.0768194
0.0843617
0.0796632
0.0811661
0.0813783
0.0815567
0.0818539
0.0821673
0.0825187
2.05921
0.0722297
0.0683358
0.0612665
0.0602186
0.0559737
0.0560288
0.0523396
0.0528662
0.0503263
0.0506804
0.0488878
)
;

boundaryField
{
    rotor
    {
        type            kqRWallFunction;
        value           nonuniform List<scalar> 
192
(
2.33966
3.23949
3.74711
3.74218
3.68772
3.39117
3.22409
4.09224
12.3357
22.7499
26.9793
29.0186
30.6527
31.4659
31.9447
32.0174
32.044
31.0497
29.5759
27.1543
24.0053
20.028
14.8063
11.2433
2.33968
3.23952
3.74713
3.7422
3.68773
3.39118
3.2241
4.09226
12.3358
22.75
26.9794
29.0187
30.6527
31.466
31.9448
32.0174
32.044
31.0498
29.576
27.1544
24.0053
20.0281
14.8063
11.2434
2.33969
3.23953
3.74715
3.74223
3.68776
3.39121
3.22413
4.09228
12.3358
22.7499
26.9794
29.0187
30.6527
31.4659
31.9448
32.0174
32.044
31.0498
29.5759
27.1544
24.0053
20.028
14.8063
11.2433
2.33967
3.2395
3.74711
3.74218
3.68772
3.39117
3.22409
4.09224
12.3357
22.7499
26.9793
29.0186
30.6526
31.4659
31.9447
32.0173
32.0439
31.0497
29.5759
27.1543
24.0053
20.028
14.8063
11.2433
2.33966
4.8946
6.60631
8.80664
10.4
11.6897
12.5045
13.7677
15.499
18.5139
21.1606
53.064
11.2433
27.1548
39.4837
49.1095
57.9056
66.3893
75.0174
84.8491
96.1893
108.282
122.252
139.914
2.33968
4.89464
6.60637
8.80673
10.4001
11.6898
12.5046
13.7678
15.499
18.5139
21.1606
53.0641
11.2433
27.1549
39.4837
49.1095
57.9056
66.3893
75.0174
84.8491
96.1893
108.282
122.252
139.914
2.33969
4.89466
6.6064
8.80676
10.4001
11.6899
12.5046
13.7678
15.4991
18.5139
21.1607
53.0642
11.2434
27.1549
39.4838
49.1096
57.9057
66.3894
75.0175
84.8492
96.1894
108.283
122.252
139.914
2.33967
4.89461
6.60634
8.80668
10.4001
11.6898
12.5045
13.7677
15.499
18.5138
21.1606
53.0641
11.2433
27.1548
39.4837
49.1095
57.9057
66.3893
75.0174
84.8492
96.1893
108.282
122.252
139.914
)
;
    }
    stator
    {
        type            kqRWallFunction;
        value           nonuniform List<scalar> 
192
(
0.0491108
0.0477838
0.0479362
0.046914
0.0470308
0.0462639
0.0463739
0.0458885
0.0460057
0.0458633
0.0459881
0.0460979
2.05921
0.0722233
0.0683251
0.061259
0.0602105
0.0559667
0.0560213
0.0523323
0.0528589
0.0503192
0.0506733
0.048881
0.0491108
0.0477838
0.0479362
0.046914
0.0470308
0.0462639
0.0463739
0.0458886
0.0460057
0.0458633
0.0459881
0.0460979
2.05918
0.0722234
0.0683249
0.061259
0.0602105
0.0559667
0.0560213
0.0523323
0.0528589
0.0503193
0.0506734
0.0488811
0.0491109
0.047784
0.0479363
0.0469142
0.0470309
0.046264
0.046374
0.0458887
0.0460059
0.0458635
0.0459883
0.0460981
2.0592
0.0722237
0.0683249
0.0612591
0.0602106
0.0559668
0.0560214
0.0523324
0.052859
0.0503193
0.0506734
0.0488811
0.0491109
0.047784
0.0479363
0.0469142
0.0470309
0.046264
0.046374
0.0458887
0.0460058
0.0458634
0.0459882
0.046098
2.05921
0.0722297
0.0683358
0.0612665
0.0602186
0.0559737
0.0560288
0.0523396
0.0528662
0.0503263
0.0506804
0.0488878
68.2275
58.9665
52.3376
46.1914
40.0126
33.3849
26.8837
20.1568
12.6741
6.63826
2.66983
2.05921
29.1927
4.90777
0.839711
0.18682
0.110693
0.109413
0.109186
0.109049
0.107554
0.101994
0.0870278
0.0460979
68.2275
58.9665
52.3376
46.1913
40.0125
33.3847
26.8836
20.1566
12.6739
6.63818
2.66979
2.05918
29.1927
4.90779
0.839721
0.186826
0.110696
0.109413
0.109186
0.109048
0.107554
0.101993
0.0870278
0.0460979
68.2275
58.9664
52.3376
46.1913
40.0125
33.3848
26.8836
20.1567
12.674
6.63821
2.66981
2.0592
29.1927
4.90777
0.839717
0.186826
0.110697
0.109413
0.109186
0.109048
0.107554
0.101994
0.0870282
0.0460981
68.2275
58.9664
52.3375
46.1913
40.0124
33.3847
26.8836
20.1567
12.674
6.63824
2.66983
2.05921
29.1927
4.90778
0.839723
0.18683
0.1107
0.109414
0.109186
0.109049
0.107554
0.101994
0.0870281
0.046098
)
;
    }
    front
    {
        type            empty;
    }
    back
    {
        type            empty;
    }
}


// ************************************************************************* //
