/*--------------------------------*- C++ -*----------------------------------*\
| =========                 |                                                 |
| \\      /  F ield         | OpenFOAM: The Open Source CFD Toolbox           |
|  \\    /   O peration     | Version:  2212                                  |
|   \\  /    A nd           | Website:  www.openfoam.com                      |
|    \\/     M anipulation  |                                                 |
\*---------------------------------------------------------------------------*/
FoamFile
{
    version     2.0;
    format      ascii;
    arch        "LSB;label=32;scalar=64";
    class       volScalarField;
    location    "0.06";
    object      nut;
}
// * * * * * * * * * * * * * * * * * * * * * * * * * * * * * * * * * * * * * //

dimensions      [0 2 -1 0 0 0 0];

internalField   nonuniform List<scalar> 
3072
(
0.000238973
0.000514865
0.000553736
0.000553372
0.000549331
0.000526781
0.00051364
0.000578676
0.0010047
0.00136441
0.00148583
0.00154097
0.000386221
0.00111675
0.00158566
0.00177734
0.001523
0.000885508
0.000793964
0.00140805
0.00172255
0.00276196
0.00377381
0.00526338
0.00049585
0.00184088
0.00248462
0.0025937
0.00224482
0.00207435
0.0020592
0.00292794
0.00445745
0.00654254
0.00874333
0.0108719
0.000626945
0.00289468
0.00315557
0.00274429
0.00260255
0.00262172
0.00349125
0.00565887
0.00801179
0.0106686
0.0131845
0.0154101
0.000740477
0.00343464
0.00346947
0.00314044
0.00313748
0.00384769
0.00584876
0.00864291
0.0113426
0.0140736
0.0165902
0.0188097
0.000847789
0.00388546
0.00393926
0.00372359
0.00415479
0.00586425
0.00856067
0.0112918
0.0139601
0.0165831
0.0189975
0.0211559
0.00094173
0.0043978
0.00477843
0.00485853
0.00598315
0.00839001
0.0109563
0.0134827
0.0159665
0.018334
0.0205728
0.0226282
0.00105625
0.00554487
0.00659237
0.00748578
0.00933241
0.0114308
0.0135575
0.0157022
0.017858
0.0199124
0.0218482
0.0236354
0.00119295
0.00751243
0.00987364
0.0118428
0.0136
0.0151954
0.0167401
0.0182867
0.0198631
0.0214029
0.0228922
0.0243153
0.0013828
0.00903669
0.0125417
0.0149508
0.0166946
0.0180307
0.0191798
0.0202554
0.0213005
0.022342
0.0234035
0.0244977
0.00156277
0.00842659
0.0135208
0.0164539
0.0183875
0.0195801
0.0206641
0.0214383
0.0221434
0.0228482
0.0235922
0.0244037
0.00260845
0.00793568
0.0142286
0.0176372
0.0193127
0.0207946
0.021731
0.0223992
0.022934
0.0234379
0.0239709
0.0245762
0.00158376
0.00160463
0.00161679
0.00161863
0.0016193
0.00159398
0.00155569
0.00149065
0.00140155
0.00128019
0.00110072
0.000523866
0.00673617
0.00808868
0.00903445
0.00943863
0.0092577
0.0087694
0.00792842
0.00677273
0.00524075
0.0032038
0.00156679
0.000909706
0.0127047
0.0141039
0.0149797
0.0153189
0.0151314
0.0144612
0.0132625
0.0115197
0.00919876
0.00630296
0.00280923
0.00121221
0.0172946
0.0187714
0.0197974
0.0203423
0.0203655
0.0198143
0.0186092
0.016644
0.0137466
0.00992821
0.00494986
0.0014805
0.0207199
0.0222877
0.0234832
0.0242711
0.0245911
0.0243356
0.0233537
0.0214334
0.018206
0.0135543
0.00729331
0.00174725
0.0230547
0.0246771
0.0260024
0.0269979
0.0276057
0.0277323
0.0271975
0.0256761
0.0226738
0.0175005
0.010122
0.00202039
0.0244675
0.0260859
0.0274777
0.0286263
0.0295082
0.0300641
0.0301006
0.0292044
0.0266786
0.0215044
0.0131284
0.00230661
0.0252709
0.0267653
0.0281144
0.0293199
0.0304067
0.0313583
0.0320296
0.031988
0.0302898
0.0253661
0.0160576
0.00262216
0.0256406
0.0268732
0.0280888
0.0292889
0.0304833
0.0317153
0.0329212
0.033768
0.0332125
0.0290084
0.0187521
0.00297189
0.0255717
0.0265831
0.0276143
0.0287896
0.0300871
0.0314953
0.033031
0.0345859
0.0352514
0.0324314
0.0218922
0.00334417
0.0253561
0.0264395
0.0273425
0.0282881
0.029588
0.0311046
0.0327587
0.0346335
0.0362189
0.0353122
0.0256619
0.00375629
0.0253492
0.0264933
0.0275325
0.0283638
0.0294306
0.0308859
0.0324476
0.0342958
0.0362146
0.0369656
0.0296457
0.00423558
0.000238974
0.000514867
0.000553738
0.000553374
0.000549332
0.000526782
0.000513641
0.000578678
0.00100471
0.00136441
0.00148584
0.00154097
0.000386223
0.00111675
0.00158566
0.00177733
0.00152299
0.000885503
0.000793967
0.00140806
0.00172256
0.00276197
0.00377382
0.0052634
0.000495852
0.00184088
0.00248462
0.00259369
0.0022448
0.00207435
0.00205921
0.00292796
0.00445748
0.00654258
0.00874337
0.0108719
0.000626948
0.00289468
0.00315557
0.00274428
0.00260255
0.00262173
0.00349129
0.00565891
0.00801184
0.0106687
0.0131846
0.0154101
0.00074048
0.00343465
0.00346947
0.00314045
0.00313749
0.00384772
0.00584883
0.00864298
0.0113427
0.0140737
0.0165902
0.0188097
0.000847792
0.00388547
0.00393927
0.00372361
0.00415482
0.00586434
0.00856076
0.0112919
0.0139602
0.0165831
0.0189976
0.021156
0.000941732
0.00439782
0.00477847
0.00485859
0.00598325
0.00839012
0.0109564
0.0134828
0.0159666
0.0183341
0.0205729
0.0226283
0.00105625
0.0055449
0.00659243
0.00748587
0.00933253
0.0114309
0.0135576
0.0157023
0.0178581
0.0199125
0.0218483
0.0236356
0.00119295
0.00751245
0.00987369
0.0118429
0.0136001
0.0151955
0.0167402
0.0182868
0.0198632
0.021403
0.0228923
0.0243155
0.00138279
0.00903669
0.0125417
0.0149509
0.0166946
0.0180308
0.0191799
0.0202555
0.0213006
0.0223421
0.0234035
0.0244978
0.00156277
0.00842658
0.0135208
0.0164539
0.0183875
0.0195801
0.0206642
0.0214383
0.0221435
0.0228483
0.0235922
0.0244038
0.00260845
0.00793569
0.0142286
0.0176372
0.0193127
0.0207946
0.021731
0.0223992
0.022934
0.0234379
0.023971
0.0245762
0.00158376
0.00160463
0.0016168
0.00161863
0.00161931
0.00159399
0.0015557
0.00149065
0.00140155
0.00128019
0.00110073
0.000523867
0.00673619
0.00808871
0.00903448
0.00943866
0.00925772
0.00876942
0.00792844
0.00677275
0.00524076
0.00320381
0.00156679
0.000909707
0.0127047
0.0141039
0.0149797
0.015319
0.0151315
0.0144613
0.0132626
0.0115198
0.00919878
0.00630298
0.00280923
0.00121222
0.0172947
0.0187714
0.0197975
0.0203423
0.0203656
0.0198144
0.0186093
0.0166441
0.0137466
0.00992823
0.00494987
0.0014805
0.02072
0.0222878
0.0234833
0.0242712
0.0245912
0.0243357
0.0233538
0.0214335
0.0182061
0.0135543
0.00729332
0.00174725
0.0230548
0.0246772
0.0260025
0.026998
0.0276058
0.0277323
0.0271976
0.0256761
0.0226738
0.0175005
0.010122
0.00202039
0.0244676
0.026086
0.0274778
0.0286265
0.0295083
0.0300642
0.0301006
0.0292044
0.0266787
0.0215045
0.0131284
0.00230661
0.025271
0.0267654
0.0281145
0.02932
0.0304068
0.0313584
0.0320297
0.0319881
0.0302899
0.0253662
0.0160576
0.00262216
0.0256408
0.0268733
0.0280889
0.029289
0.0304834
0.0317154
0.0329213
0.0337681
0.0332126
0.0290084
0.0187521
0.0029719
0.0255718
0.0265832
0.0276144
0.0287897
0.0300872
0.0314954
0.0330311
0.034586
0.0352515
0.0324315
0.0218922
0.00334417
0.0253562
0.0264396
0.0273426
0.0282882
0.0295881
0.0311047
0.0327588
0.0346336
0.036219
0.0353122
0.025662
0.00375629
0.0253492
0.0264934
0.0275326
0.0283638
0.0294307
0.030886
0.0324477
0.0342959
0.0362147
0.0369656
0.0296457
0.00423558
0.000238975
0.000514868
0.00055374
0.000553376
0.000549334
0.000526784
0.000513643
0.000578679
0.00100471
0.00136441
0.00148584
0.00154097
0.000386224
0.00111675
0.00158568
0.00177735
0.001523
0.00088551
0.000793968
0.00140806
0.00172256
0.00276197
0.00377382
0.0052634
0.000495853
0.00184089
0.00248464
0.00259371
0.00224483
0.00207435
0.00205921
0.00292796
0.00445748
0.00654258
0.00874337
0.0108719
0.00062695
0.00289469
0.00315559
0.00274431
0.00260256
0.00262173
0.00349129
0.00565891
0.00801184
0.0106687
0.0131846
0.0154101
0.000740482
0.00343467
0.00346949
0.00314047
0.0031375
0.00384772
0.00584883
0.00864298
0.0113427
0.0140737
0.0165902
0.0188097
0.000847793
0.00388548
0.00393929
0.00372362
0.00415482
0.00586433
0.00856076
0.0112919
0.0139602
0.0165831
0.0189976
0.021156
0.000941734
0.00439783
0.00477849
0.0048586
0.00598325
0.00839012
0.0109564
0.0134828
0.0159666
0.0183342
0.0205729
0.0226283
0.00105625
0.00554492
0.00659245
0.00748589
0.00933255
0.0114309
0.0135576
0.0157023
0.0178582
0.0199125
0.0218484
0.0236356
0.00119295
0.00751246
0.00987372
0.0118429
0.0136001
0.0151955
0.0167402
0.0182868
0.0198632
0.021403
0.0228923
0.0243155
0.0013828
0.00903671
0.0125417
0.0149509
0.0166946
0.0180308
0.0191799
0.0202555
0.0213006
0.0223421
0.0234036
0.0244978
0.00156277
0.00842659
0.0135208
0.0164539
0.0183875
0.0195801
0.0206642
0.0214383
0.0221435
0.0228483
0.0235923
0.0244038
0.00260846
0.00793569
0.0142286
0.0176372
0.0193127
0.0207947
0.021731
0.0223992
0.022934
0.0234379
0.023971
0.0245763
0.00158376
0.00160463
0.0016168
0.00161863
0.0016193
0.00159399
0.00155569
0.00149065
0.00140155
0.00128019
0.00110072
0.000523866
0.00673619
0.00808871
0.00903448
0.00943866
0.00925772
0.00876942
0.00792843
0.00677275
0.00524076
0.00320381
0.00156679
0.000909706
0.0127047
0.0141039
0.0149797
0.015319
0.0151315
0.0144613
0.0132625
0.0115198
0.00919877
0.00630297
0.00280923
0.00121221
0.0172947
0.0187714
0.0197975
0.0203423
0.0203656
0.0198144
0.0186093
0.0166441
0.0137466
0.00992822
0.00494986
0.0014805
0.0207199
0.0222877
0.0234833
0.0242712
0.0245911
0.0243356
0.0233538
0.0214335
0.0182061
0.0135543
0.00729332
0.00174725
0.0230548
0.0246772
0.0260025
0.026998
0.0276058
0.0277323
0.0271976
0.0256761
0.0226738
0.0175005
0.010122
0.00202039
0.0244676
0.026086
0.0274778
0.0286264
0.0295083
0.0300642
0.0301006
0.0292044
0.0266786
0.0215045
0.0131284
0.00230661
0.025271
0.0267654
0.0281145
0.02932
0.0304067
0.0313584
0.0320296
0.031988
0.0302899
0.0253662
0.0160576
0.00262216
0.0256408
0.0268733
0.0280889
0.0292889
0.0304834
0.0317154
0.0329213
0.0337681
0.0332126
0.0290084
0.0187521
0.00297189
0.0255718
0.0265832
0.0276144
0.0287897
0.0300872
0.0314954
0.0330311
0.034586
0.0352514
0.0324315
0.0218922
0.00334417
0.0253562
0.0264396
0.0273426
0.0282882
0.0295881
0.0311047
0.0327587
0.0346336
0.036219
0.0353122
0.0256619
0.00375629
0.0253492
0.0264934
0.0275326
0.0283638
0.0294307
0.030886
0.0324476
0.0342958
0.0362147
0.0369656
0.0296457
0.00423558
0.000238974
0.000514866
0.000553737
0.000553373
0.000549331
0.000526781
0.00051364
0.000578676
0.0010047
0.00136441
0.00148583
0.00154097
0.000386222
0.00111675
0.00158566
0.00177733
0.00152299
0.000885505
0.000793962
0.00140805
0.00172255
0.00276196
0.00377381
0.00526338
0.000495851
0.00184088
0.00248462
0.00259369
0.00224481
0.00207435
0.0020592
0.00292795
0.00445746
0.00654256
0.00874334
0.0108719
0.000626947
0.00289468
0.00315557
0.00274429
0.00260255
0.00262172
0.00349127
0.00565889
0.00801181
0.0106687
0.0131845
0.0154101
0.000740479
0.00343465
0.00346947
0.00314045
0.00313748
0.0038477
0.0058488
0.00864294
0.0113426
0.0140736
0.0165902
0.0188097
0.00084779
0.00388546
0.00393927
0.0037236
0.0041548
0.0058643
0.00856072
0.0112918
0.0139602
0.0165831
0.0189976
0.021156
0.000941731
0.00439781
0.00477846
0.00485857
0.00598321
0.00839008
0.0109564
0.0134828
0.0159666
0.0183341
0.0205729
0.0226283
0.00105625
0.00554489
0.00659241
0.00748585
0.0093325
0.0114309
0.0135576
0.0157023
0.0178581
0.0199125
0.0218483
0.0236355
0.00119295
0.00751244
0.00987368
0.0118429
0.0136
0.0151955
0.0167401
0.0182868
0.0198632
0.021403
0.0228923
0.0243154
0.00138279
0.00903669
0.0125417
0.0149509
0.0166946
0.0180308
0.0191799
0.0202554
0.0213006
0.0223421
0.0234035
0.0244977
0.00156277
0.00842658
0.0135208
0.0164539
0.0183875
0.0195801
0.0206642
0.0214383
0.0221434
0.0228483
0.0235922
0.0244038
0.00260845
0.00793568
0.0142286
0.0176372
0.0193127
0.0207946
0.021731
0.0223992
0.022934
0.0234379
0.023971
0.0245762
0.00158376
0.00160463
0.00161679
0.00161863
0.0016193
0.00159398
0.00155569
0.00149065
0.00140155
0.00128019
0.00110072
0.000523866
0.00673617
0.00808869
0.00903445
0.00943864
0.00925771
0.00876941
0.00792842
0.00677274
0.00524075
0.0032038
0.00156679
0.000909706
0.0127047
0.0141039
0.0149797
0.0153189
0.0151314
0.0144613
0.0132625
0.0115198
0.00919876
0.00630297
0.00280923
0.00121221
0.0172946
0.0187714
0.0197975
0.0203423
0.0203656
0.0198144
0.0186093
0.016644
0.0137466
0.00992822
0.00494986
0.0014805
0.0207199
0.0222877
0.0234832
0.0242711
0.0245911
0.0243356
0.0233538
0.0214334
0.018206
0.0135543
0.00729331
0.00174725
0.0230547
0.0246772
0.0260024
0.026998
0.0276057
0.0277323
0.0271975
0.0256761
0.0226738
0.0175005
0.010122
0.00202039
0.0244676
0.026086
0.0274777
0.0286264
0.0295082
0.0300641
0.0301006
0.0292044
0.0266786
0.0215044
0.0131284
0.00230661
0.025271
0.0267653
0.0281145
0.0293199
0.0304067
0.0313584
0.0320296
0.031988
0.0302899
0.0253661
0.0160576
0.00262216
0.0256407
0.0268732
0.0280888
0.0292889
0.0304833
0.0317154
0.0329212
0.033768
0.0332125
0.0290084
0.0187521
0.00297189
0.0255718
0.0265831
0.0276144
0.0287896
0.0300872
0.0314953
0.0330311
0.0345859
0.0352514
0.0324314
0.0218922
0.00334417
0.0253562
0.0264396
0.0273426
0.0282882
0.029588
0.0311046
0.0327587
0.0346335
0.0362189
0.0353122
0.0256619
0.00375629
0.0253492
0.0264933
0.0275326
0.0283638
0.0294307
0.030886
0.0324476
0.0342958
0.0362146
0.0369656
0.0296456
0.00423558
0.0156979
0.0162826
0.0177445
0.0192973
0.0206522
0.0219126
0.0227467
0.0233562
0.0238142
0.0242307
0.0246595
0.0251463
0.0253449
0.0231119
0.0223921
0.0224616
0.022903
0.0233519
0.0237857
0.0243433
0.0248463
0.0252505
0.0256451
0.0260825
0.0319987
0.0294555
0.027607
0.0265127
0.0259842
0.0257641
0.0258364
0.0259958
0.0261736
0.0263899
0.0268061
0.0273082
0.0340001
0.0322401
0.0306276
0.0292896
0.0284192
0.0278931
0.0276582
0.0275779
0.0277513
0.0279786
0.0283088
0.0288207
0.0258577
0.0269876
0.0280664
0.0289112
0.029875
0.0311023
0.0324086
0.0339533
0.0357954
0.0379688
0.0381127
0.0175924
0.0268898
0.0279581
0.0289445
0.0298443
0.030796
0.0316626
0.0326322
0.0337265
0.0351516
0.037184
0.040751
0.029484
0.0282938
0.0291296
0.0299912
0.0307649
0.0315304
0.0321952
0.0329762
0.0337596
0.0346999
0.0361054
0.0393855
0.0351754
0.0298572
0.0305946
0.0312778
0.0319052
0.0324002
0.0329022
0.0334687
0.0339758
0.0346057
0.0353273
0.0370862
0.036023
0.0156979
0.0162826
0.0177445
0.0192973
0.0206522
0.0219126
0.0227467
0.0233562
0.0238142
0.0242308
0.0246595
0.0251463
0.0253449
0.023112
0.0223922
0.0224616
0.022903
0.0233519
0.0237857
0.0243433
0.0248463
0.0252505
0.0256451
0.0260825
0.0319988
0.0294556
0.0276071
0.0265128
0.0259843
0.0257641
0.0258364
0.0259958
0.0261736
0.0263899
0.0268061
0.0273082
0.0340002
0.0322402
0.0306277
0.0292896
0.0284192
0.0278931
0.0276583
0.0275779
0.0277513
0.0279786
0.0283088
0.0288207
0.0258578
0.0269877
0.0280665
0.0289112
0.029875
0.0311024
0.0324087
0.0339534
0.0357955
0.0379689
0.0381128
0.0175924
0.0268898
0.0279581
0.0289446
0.0298443
0.0307961
0.0316626
0.0326323
0.0337265
0.0351516
0.0371841
0.0407511
0.029484
0.0282938
0.0291296
0.0299912
0.0307649
0.0315305
0.0321952
0.0329762
0.0337597
0.0346999
0.0361054
0.0393855
0.0351755
0.0298573
0.0305946
0.0312778
0.0319052
0.0324002
0.0329022
0.0334687
0.0339758
0.0346058
0.0353273
0.0370862
0.036023
0.0156979
0.0162827
0.0177445
0.0192974
0.0206523
0.0219127
0.0227467
0.0233562
0.0238143
0.0242308
0.0246596
0.0251464
0.0253449
0.023112
0.0223922
0.0224617
0.022903
0.0233519
0.0237858
0.0243434
0.0248463
0.0252505
0.0256451
0.0260825
0.0319989
0.0294557
0.0276071
0.0265128
0.0259843
0.0257642
0.0258364
0.0259958
0.0261737
0.0263899
0.0268061
0.0273082
0.0340002
0.0322402
0.0306278
0.0292897
0.0284192
0.0278931
0.0276583
0.0275779
0.0277513
0.0279786
0.0283088
0.0288207
0.0258578
0.0269877
0.0280665
0.0289112
0.029875
0.0311024
0.0324086
0.0339534
0.0357955
0.0379689
0.0381127
0.0175924
0.0268898
0.0279581
0.0289446
0.0298443
0.0307961
0.0316626
0.0326322
0.0337265
0.0351516
0.037184
0.0407511
0.029484
0.0282938
0.0291296
0.0299912
0.0307649
0.0315304
0.0321952
0.0329762
0.0337596
0.0346999
0.0361054
0.0393855
0.0351754
0.0298572
0.0305946
0.0312778
0.0319052
0.0324002
0.0329021
0.0334687
0.0339758
0.0346057
0.0353273
0.0370862
0.036023
0.0156979
0.0162826
0.0177445
0.0192973
0.0206522
0.0219126
0.0227467
0.0233562
0.0238142
0.0242308
0.0246595
0.0251463
0.0253449
0.023112
0.0223922
0.0224616
0.022903
0.0233519
0.0237857
0.0243433
0.0248463
0.0252505
0.0256451
0.0260825
0.0319988
0.0294557
0.0276071
0.0265128
0.0259843
0.0257641
0.0258364
0.0259958
0.0261736
0.0263899
0.0268061
0.0273082
0.0340002
0.0322402
0.0306277
0.0292896
0.0284192
0.0278931
0.0276583
0.0275779
0.0277513
0.0279786
0.0283088
0.0288207
0.0258578
0.0269877
0.0280664
0.0289112
0.029875
0.0311024
0.0324086
0.0339533
0.0357954
0.0379688
0.0381127
0.0175924
0.0268898
0.0279581
0.0289446
0.0298443
0.030796
0.0316626
0.0326322
0.0337265
0.0351516
0.037184
0.040751
0.0294839
0.0282938
0.0291296
0.0299912
0.0307649
0.0315304
0.0321952
0.0329762
0.0337596
0.0346999
0.0361053
0.0393855
0.0351754
0.0298572
0.0305946
0.0312778
0.0319052
0.0324002
0.0329021
0.0334687
0.0339757
0.0346057
0.0353273
0.0370862
0.0360229
0.0316491
0.0305071
0.0295513
0.0289184
0.0285614
0.0284228
0.0283667
0.0284269
0.0287282
0.0291337
0.0298333
0.0309
0.0301018
0.0293694
0.0287799
0.0284395
0.0282295
0.0280328
0.0277921
0.0276695
0.0275983
0.0276347
0.028028
0.0290718
0.0286073
0.0280401
0.0275923
0.0272389
0.0267605
0.0261603
0.0255418
0.0248142
0.0239732
0.0231322
0.0226092
0.0231381
0.026763
0.0262577
0.0256194
0.024923
0.0240039
0.0229467
0.0216888
0.0201569
0.0183847
0.0165028
0.0148344
0.0138807
0.032227
0.0331075
0.0331834
0.0334261
0.033596
0.0338014
0.0339964
0.0341613
0.0343261
0.0344906
0.0340824
0.0331675
0.030751
0.0332516
0.0330909
0.0331509
0.0332041
0.0332569
0.0332865
0.0332589
0.0330727
0.0326587
0.0321338
0.0312135
0.0256668
0.0315067
0.0319612
0.0320016
0.0320264
0.0320255
0.031971
0.0317071
0.0313251
0.0309248
0.0303922
0.0294298
0.0147565
0.0285594
0.0303182
0.0304035
0.0304234
0.0303253
0.0300977
0.0297439
0.0294529
0.0290501
0.0283926
0.027485
0.0316492
0.0305072
0.0295514
0.0289185
0.0285614
0.0284228
0.0283667
0.0284269
0.0287282
0.0291337
0.0298333
0.0309
0.0301018
0.0293694
0.02878
0.0284395
0.0282295
0.0280328
0.0277921
0.0276695
0.0275983
0.0276348
0.028028
0.0290718
0.0286074
0.0280401
0.0275924
0.0272389
0.0267605
0.0261603
0.0255418
0.0248142
0.0239733
0.0231323
0.0226092
0.0231381
0.0267631
0.0262577
0.0256194
0.024923
0.0240039
0.0229467
0.0216889
0.0201569
0.0183847
0.0165028
0.0148344
0.0138807
0.032227
0.0331075
0.0331835
0.0334262
0.033596
0.0338014
0.0339965
0.0341613
0.0343261
0.0344907
0.0340825
0.0331676
0.030751
0.0332516
0.0330909
0.0331509
0.0332041
0.0332569
0.0332866
0.0332589
0.0330727
0.0326587
0.0321339
0.0312135
0.0256668
0.0315067
0.0319612
0.0320016
0.0320264
0.0320255
0.031971
0.0317071
0.0313251
0.0309249
0.0303922
0.0294299
0.0147565
0.0285594
0.0303182
0.0304035
0.0304234
0.0303253
0.0300977
0.0297439
0.0294529
0.0290501
0.0283926
0.027485
0.0316492
0.0305072
0.0295514
0.0289185
0.0285614
0.0284229
0.0283667
0.0284269
0.0287282
0.0291337
0.0298333
0.0309
0.0301018
0.0293694
0.02878
0.0284395
0.0282295
0.0280328
0.0277921
0.0276695
0.0275983
0.0276347
0.028028
0.0290718
0.0286074
0.0280401
0.0275924
0.0272389
0.0267605
0.0261603
0.0255418
0.0248142
0.0239732
0.0231322
0.0226092
0.0231381
0.026763
0.0262577
0.0256194
0.024923
0.0240039
0.0229467
0.0216888
0.0201569
0.0183847
0.0165028
0.0148344
0.0138807
0.032227
0.0331075
0.0331834
0.0334261
0.033596
0.0338014
0.0339964
0.0341613
0.034326
0.0344906
0.0340824
0.0331675
0.030751
0.0332515
0.0330909
0.0331509
0.033204
0.0332569
0.0332865
0.0332589
0.0330727
0.0326587
0.0321338
0.0312135
0.0256668
0.0315067
0.0319612
0.0320016
0.0320264
0.0320255
0.031971
0.0317071
0.0313251
0.0309248
0.0303921
0.0294298
0.0147565
0.0285594
0.0303182
0.0304034
0.0304233
0.0303253
0.0300977
0.0297439
0.0294529
0.0290501
0.0283926
0.027485
0.0316492
0.0305072
0.0295514
0.0289185
0.0285614
0.0284228
0.0283667
0.0284269
0.0287282
0.0291336
0.0298333
0.0309
0.0301018
0.0293694
0.02878
0.0284395
0.0282295
0.0280328
0.0277921
0.0276694
0.0275983
0.0276347
0.0280279
0.0290718
0.0286073
0.0280401
0.0275924
0.0272389
0.0267605
0.0261603
0.0255418
0.0248142
0.0239732
0.0231322
0.0226092
0.023138
0.026763
0.0262577
0.0256194
0.024923
0.0240039
0.0229466
0.0216888
0.0201569
0.0183847
0.0165028
0.0148344
0.0138807
0.032227
0.0331075
0.0331834
0.0334261
0.033596
0.0338014
0.0339964
0.0341612
0.034326
0.0344906
0.0340824
0.0331674
0.0307509
0.0332515
0.0330908
0.0331509
0.033204
0.0332569
0.0332865
0.0332589
0.0330727
0.0326587
0.0321338
0.0312134
0.0256668
0.0315067
0.0319612
0.0320015
0.0320263
0.0320255
0.031971
0.031707
0.0313251
0.0309248
0.0303921
0.0294297
0.0147565
0.0285593
0.0303182
0.0304034
0.0304233
0.0303253
0.0300976
0.0297438
0.0294529
0.0290501
0.0283926
0.0274849
0.0244109
0.0236694
0.0226987
0.0216116
0.020279
0.0187001
0.0167932
0.0145137
0.0118675
0.00893741
0.00545973
0.00282735
0.0213432
0.0202965
0.0190227
0.0175617
0.0158128
0.0137666
0.0113645
0.00861385
0.00549028
0.00266792
0.00123293
0.00119994
0.0176383
0.0162837
0.0146849
0.0128421
0.0106825
0.00820766
0.00529244
0.00238462
0.000747375
0.000380395
0.000404252
0.000513165
0.013345
0.0116678
0.00972923
0.00749792
0.00484093
0.00214589
0.000533153
0.000199677
0.000170696
0.000268104
0.000230358
0.000249983
0.00852246
0.00648771
0.00411768
0.00179595
0.000463139
0.000186582
0.000174631
0.000222498
0.000207552
0.000206916
0.000202683
0.000198532
0.00313967
0.00131162
0.000399101
0.000290695
0.000198695
0.000215882
0.000212629
0.000211151
0.000210257
0.000207879
0.000205905
0.000203453
0.000310147
0.000770913
0.000212408
0.000219384
0.000218724
0.00021837
0.000217407
0.000216074
0.000214535
0.000212978
0.000211265
0.000209309
0.000223104
0.000227099
0.000223467
0.000223455
0.000223444
0.000223051
0.000222161
0.000221152
0.00021998
0.000218665
0.000217074
0.000215239
0.00022807
0.000227364
0.00022687
0.000226526
0.000226249
0.000225976
0.000225572
0.000224971
0.000224128
0.000223058
0.000221644
0.000219779
0.000225524
0.000225215
0.00022501
0.000224984
0.000224978
0.000224996
0.000224866
0.000224526
0.000223886
0.00022297
0.000221717
0.000219886
0.000192263
0.000193722
0.000195342
0.000196916
0.000198706
0.000200526
0.000202489
0.000204143
0.00020572
0.000207137
0.00020831
0.000208529
6.19119e-05
6.10697e-05
6.1167e-05
6.05114e-05
6.05866e-05
6.00906e-05
6.0162e-05
5.98464e-05
5.99227e-05
5.98299e-05
5.99113e-05
5.99827e-05
0.00432237
0.0246914
0.0284522
0.0284639
0.0284014
0.0281452
0.0278653
0.0276381
0.0273331
0.0268369
0.0260285
0.0251629
0.00415929
0.0226791
0.0264216
0.026095
0.0259156
0.0256924
0.0255119
0.0252717
0.0248289
0.0241175
0.0232148
0.0222683
0.00405134
0.0207192
0.0238024
0.0234388
0.0232825
0.0231319
0.0228702
0.0224557
0.0217851
0.0208616
0.0198735
0.0188041
0.0039308
0.018531
0.0208386
0.020709
0.0205327
0.0202204
0.0198058
0.0190979
0.0182054
0.0171822
0.0160534
0.0147857
0.00377458
0.0161857
0.0179076
0.0177674
0.0174454
0.0169066
0.0161791
0.0152992
0.0142697
0.0130854
0.0117595
0.0102497
0.0035539
0.0137877
0.0150356
0.0145165
0.0139177
0.0131373
0.0122467
0.0111688
0.00999415
0.00861043
0.0070307
0.00518268
0.00328433
0.0108338
0.0118781
0.0106816
0.0101603
0.00909406
0.00807076
0.00670499
0.00528682
0.00363128
0.00210712
0.000828171
0.00292631
0.00762102
0.00832093
0.00664877
0.00614795
0.004578
0.00353871
0.00210546
0.00117572
0.000443793
0.000245625
0.000472668
0.00238578
0.00376646
0.00415336
0.00247848
0.00216085
0.00090584
0.000641466
0.000351727
0.000237485
0.000243571
0.000227385
0.000229949
0.00177393
0.000881831
0.00101978
0.000406698
0.00036962
0.000282325
0.000223879
0.000221708
0.000227179
0.000226452
0.000226743
0.000226084
0.00115499
0.000155917
0.000189282
0.000158003
0.000171303
0.000168154
0.000181274
0.000181793
0.000184717
0.000186937
0.000188967
0.000190407
0.0004009
7.508e-05
7.30257e-05
6.91466e-05
6.85522e-05
6.60922e-05
6.61245e-05
6.39102e-05
6.4231e-05
6.26689e-05
6.28891e-05
6.17669e-05
0.024411
0.0236694
0.0226987
0.0216116
0.020279
0.0187002
0.0167933
0.0145137
0.0118675
0.00893742
0.00545973
0.00282735
0.0213433
0.0202965
0.0190227
0.0175617
0.0158129
0.0137666
0.0113646
0.00861387
0.00549029
0.00266792
0.00123293
0.00119994
0.0176383
0.0162838
0.0146849
0.0128421
0.0106825
0.00820769
0.00529246
0.00238463
0.000747381
0.0003804
0.000404255
0.000513168
0.013345
0.0116679
0.00972926
0.00749795
0.00484096
0.00214591
0.000533162
0.000199684
0.0001707
0.000268109
0.000230363
0.000249988
0.0085225
0.00648775
0.00411771
0.00179598
0.000463147
0.000186585
0.000174631
0.0002225
0.000207554
0.000206918
0.000202686
0.000198535
0.0031397
0.00131164
0.000399106
0.000290693
0.000198694
0.000215882
0.000212629
0.00021115
0.000210256
0.000207879
0.000205905
0.000203453
0.000310132
0.000770952
0.000212406
0.000219383
0.000218723
0.000218369
0.000217406
0.000216073
0.000214535
0.000212977
0.000211264
0.000209308
0.000223103
0.000227098
0.000223466
0.000223454
0.000223444
0.00022305
0.000222161
0.000221151
0.00021998
0.000218664
0.000217074
0.000215238
0.00022807
0.000227363
0.000226869
0.000226526
0.000226249
0.000225975
0.000225571
0.000224971
0.000224128
0.000223058
0.000221644
0.000219779
0.000225523
0.000225214
0.00022501
0.000224984
0.000224978
0.000224996
0.000224866
0.000224526
0.000223885
0.00022297
0.000221717
0.000219885
0.000192254
0.000193721
0.000195342
0.000196916
0.000198706
0.000200526
0.000202489
0.000204143
0.00020572
0.000207137
0.00020831
0.000208529
6.19119e-05
6.10697e-05
6.1167e-05
6.05114e-05
6.05866e-05
6.00906e-05
6.0162e-05
5.98464e-05
5.99227e-05
5.98299e-05
5.99113e-05
5.99827e-05
0.00432237
0.0246914
0.0284521
0.0284639
0.0284014
0.0281451
0.0278653
0.0276381
0.0273331
0.0268369
0.0260285
0.0251629
0.00415929
0.0226791
0.0264216
0.026095
0.0259156
0.0256924
0.0255119
0.0252716
0.0248288
0.0241175
0.0232148
0.0222683
0.00405134
0.0207192
0.0238024
0.0234387
0.0232824
0.0231319
0.0228702
0.0224556
0.0217851
0.0208615
0.0198735
0.0188041
0.00393079
0.018531
0.0208385
0.0207089
0.0205327
0.0202203
0.0198058
0.0190978
0.0182054
0.0171822
0.0160534
0.0147857
0.00377458
0.0161856
0.0179076
0.0177673
0.0174453
0.0169065
0.016179
0.0152991
0.0142697
0.0130853
0.0117595
0.0102497
0.00355389
0.0137877
0.0150356
0.0145165
0.0139177
0.0131372
0.0122466
0.0111688
0.0099941
0.00861037
0.00703065
0.00518263
0.00328433
0.0108338
0.0118781
0.0106815
0.0101602
0.009094
0.00807069
0.00670492
0.00528675
0.00363122
0.00210708
0.000828152
0.0029263
0.00762098
0.00832088
0.0066487
0.00614788
0.00457793
0.00353865
0.0021054
0.00117568
0.000443776
0.000245627
0.000472653
0.00238577
0.00376641
0.00415331
0.00247843
0.0021608
0.000905811
0.000641445
0.000351728
0.000237483
0.00024357
0.000227386
0.000229949
0.00177392
0.000881814
0.00101976
0.000406689
0.000369611
0.000282323
0.000223879
0.000221708
0.000227179
0.000226452
0.000226743
0.000226084
0.00115499
0.000155916
0.000189281
0.000158003
0.000171303
0.000168154
0.000181274
0.000181793
0.000184717
0.000186938
0.000188967
0.000190408
0.000400897
7.508e-05
7.30256e-05
6.91465e-05
6.85522e-05
6.60922e-05
6.61245e-05
6.39103e-05
6.4231e-05
6.2669e-05
6.28891e-05
6.17669e-05
0.024411
0.0236694
0.0226987
0.0216116
0.020279
0.0187001
0.0167932
0.0145137
0.0118675
0.00893741
0.00545973
0.00282735
0.0213432
0.0202965
0.0190227
0.0175617
0.0158128
0.0137666
0.0113645
0.00861385
0.00549028
0.00266792
0.00123293
0.00119994
0.0176383
0.0162837
0.0146849
0.0128421
0.0106825
0.00820765
0.00529243
0.00238462
0.000747378
0.0003804
0.000404254
0.000513166
0.013345
0.0116678
0.00972923
0.00749791
0.00484093
0.00214589
0.000533154
0.000199682
0.000170702
0.000268107
0.000230363
0.000249987
0.00852246
0.0064877
0.00411767
0.00179595
0.000463141
0.000186584
0.000174633
0.000222501
0.000207555
0.000206919
0.000202686
0.000198536
0.00313966
0.00131162
0.000399102
0.000290699
0.000198695
0.000215882
0.000212629
0.00021115
0.000210256
0.000207879
0.000205905
0.000203453
0.000310129
0.000770953
0.000212407
0.000219384
0.000218723
0.000218369
0.000217407
0.000216074
0.000214535
0.000212978
0.000211264
0.000209308
0.000223103
0.000227098
0.000223466
0.000223455
0.000223444
0.000223051
0.000222161
0.000221151
0.00021998
0.000218665
0.000217074
0.000215238
0.00022807
0.000227363
0.00022687
0.000226526
0.000226249
0.000225976
0.000225572
0.000224971
0.000224128
0.000223058
0.000221644
0.000219779
0.000225523
0.000225215
0.000225011
0.000224984
0.000224978
0.000224997
0.000224866
0.000224526
0.000223886
0.00022297
0.000221717
0.000219886
0.000192254
0.000193722
0.000195342
0.000196917
0.000198706
0.000200527
0.000202489
0.000204143
0.000205721
0.000207138
0.00020831
0.00020853
6.1912e-05
6.10698e-05
6.11671e-05
6.05115e-05
6.05867e-05
6.00907e-05
6.01621e-05
5.98465e-05
5.99228e-05
5.983e-05
5.99114e-05
5.99828e-05
0.00432237
0.0246914
0.0284521
0.0284638
0.0284013
0.0281451
0.0278652
0.027638
0.0273331
0.0268369
0.0260285
0.0251629
0.00415929
0.0226791
0.0264216
0.026095
0.0259156
0.0256924
0.0255119
0.0252716
0.0248288
0.0241175
0.0232148
0.0222683
0.00405134
0.0207192
0.0238024
0.0234387
0.0232824
0.0231319
0.0228702
0.0224556
0.0217851
0.0208615
0.0198735
0.018804
0.00393079
0.018531
0.0208385
0.0207089
0.0205327
0.0202203
0.0198058
0.0190978
0.0182054
0.0171822
0.0160534
0.0147857
0.00377458
0.0161856
0.0179076
0.0177673
0.0174453
0.0169065
0.016179
0.0152991
0.0142697
0.0130853
0.0117595
0.0102497
0.00355389
0.0137876
0.0150356
0.0145164
0.0139177
0.0131372
0.0122466
0.0111687
0.0099941
0.00861037
0.00703065
0.00518263
0.00328433
0.0108338
0.0118781
0.0106815
0.0101602
0.00909399
0.00807068
0.00670492
0.00528676
0.00363122
0.00210709
0.000828155
0.0029263
0.00762097
0.00832088
0.0066487
0.00614788
0.00457792
0.00353864
0.0021054
0.00117569
0.000443773
0.000245631
0.00047265
0.00238577
0.0037664
0.0041533
0.00247843
0.00216079
0.000905808
0.000641444
0.000351727
0.000237483
0.000243571
0.000227386
0.000229949
0.00177393
0.00088181
0.00101976
0.000406688
0.00036961
0.000282322
0.000223879
0.000221709
0.000227179
0.000226452
0.000226744
0.000226084
0.00115499
0.000155916
0.000189281
0.000158003
0.000171303
0.000168154
0.000181274
0.000181793
0.000184717
0.000186937
0.000188967
0.000190407
0.000400899
7.50802e-05
7.30256e-05
6.91466e-05
6.85523e-05
6.60923e-05
6.61245e-05
6.39103e-05
6.42311e-05