/*--------------------------------*- C++ -*----------------------------------*\
| =========                 |                                                 |
| \\      /  F ield         | OpenFOAM: The Open Source CFD Toolbox           |
|  \\    /   O peration     | Version:  2212                                  |
|   \\  /    A nd           | Website:  www.openfoam.com                      |
|    \\/     M anipulation  |                                                 |
\*---------------------------------------------------------------------------*/
FoamFile
{
    version     2.0;
    format      ascii;
    arch        "LSB;label=32;scalar=64";
    class       volScalarField;
    location    "0.06";
    object      nut;
}
// * * * * * * * * * * * * * * * * * * * * * * * * * * * * * * * * * * * * * //

dimensions      [0 2 -1 0 0 0 0];

internalField   nonuniform List<scalar> 
3072
(
0.000293652
0.000619872
0.000642052
0.000639092
0.00061508
0.00059173
0.000648454
0.00106453
0.00153469
0.00170562
0.00177985
0.00183902
0.00047742
0.00122994
0.00167724
0.00158712
0.00101333
0.00085765
0.00156924
0.00195563
0.00301737
0.00422313
0.00594118
0.00773081
0.000624612
0.00224309
0.00271879
0.00233884
0.0020904
0.00227039
0.00349651
0.00515732
0.00751433
0.0102446
0.0128564
0.015224
0.000784639
0.00321563
0.00310978
0.00276881
0.00302629
0.00441304
0.00680999
0.00951584
0.012607
0.0157038
0.0184719
0.0208879
0.000905874
0.00391447
0.00399685
0.00393395
0.00505012
0.00753182
0.0104405
0.0135498
0.0167854
0.0198604
0.0226039
0.0249904
0.00101161
0.00481462
0.00544387
0.00580925
0.00767345
0.010494
0.0135526
0.0166996
0.0198462
0.0228033
0.0254599
0.0277826
0.00109136
0.0054553
0.00666228
0.00783046
0.0102381
0.0131851
0.0161913
0.0192316
0.0221784
0.024925
0.0274042
0.0295926
0.00117735
0.00647357
0.00827927
0.0103995
0.0131298
0.0160022
0.0188485
0.0216289
0.0242459
0.0266507
0.0288191
0.0307346
0.00128226
0.00762868
0.0108667
0.0138315
0.0166268
0.0192009
0.0215994
0.0238391
0.0258981
0.0277824
0.0295137
0.0310812
0.00143116
0.00909174
0.0135879
0.0168487
0.0194494
0.0215752
0.0234271
0.0251056
0.0266463
0.0280872
0.0294628
0.0307652
0.00164007
0.00886849
0.0148863
0.0183592
0.0207346
0.0226636
0.024278
0.0256731
0.0269461
0.0281321
0.0292617
0.0303613
0.00289861
0.0087893
0.0158543
0.0196462
0.0218187
0.0236808
0.025148
0.0263617
0.0274338
0.02841
0.0293227
0.0301959
0.00186928
0.00188789
0.0018895
0.00188871
0.00187269
0.00183799
0.00178371
0.00170548
0.00159702
0.00145898
0.00126198
0.000611783
0.00947401
0.0109068
0.0117695
0.0119731
0.0116641
0.0109495
0.0098213
0.00830873
0.00641361
0.00390761
0.00186424
0.00103853
0.0172004
0.0186172
0.0193452
0.019431
0.0190023
0.0179882
0.0163811
0.0141402
0.0112423
0.00767647
0.00342312
0.00136479
0.0228625
0.0243269
0.0252213
0.0255534
0.0252967
0.0243795
0.022718
0.0201643
0.0165862
0.0118817
0.00588935
0.00166662
0.026971
0.0285051
0.0295596
0.0301043
0.0300914
0.029447
0.0280336
0.0256103
0.0217309
0.0161854
0.00864898
0.00196205
0.0297432
0.0313199
0.0324962
0.0332492
0.0335525
0.0333289
0.032385
0.0303599
0.0267055
0.0206774
0.0118552
0.00226818
0.0314668
0.0330085
0.0342121
0.035089
0.0356521
0.0358551
0.0355169
0.0342018
0.0311073
0.0250613
0.0152456
0.00258575
0.0323844
0.0337646
0.0348888
0.0357998
0.0365316
0.0370867
0.0373512
0.0369077
0.0347606
0.0291031
0.0183596
0.00293909
0.0324724
0.033683
0.0347287
0.035637
0.0364591
0.0372495
0.0379947
0.0384135
0.0375004
0.0327946
0.0211965
0.00332338
0.0319716
0.0330549
0.0340349
0.0349207
0.0357738
0.036674
0.0376862
0.0387523
0.0391233
0.0360907
0.0244036
0.00373099
0.0314001
0.0323709
0.0332755
0.0340997
0.0348803
0.0356941
0.0367494
0.0380543
0.0392623
0.0382407
0.0280991
0.00417951
0.031031
0.031828
0.0325907
0.0333376
0.0341107
0.0348361
0.0355785
0.0368112
0.0384504
0.0392275
0.0320114
0.0046968
0.000275896
0.000584782
0.000610635
0.000607489
0.000590777
0.000560351
0.000589842
0.000864271
0.00139658
0.00160018
0.00168075
0.00173968
0.000448372
0.00116142
0.00162019
0.00161053
0.00111044
0.000698733
0.00136878
0.00170769
0.00252015
0.00368529
0.00519816
0.00684
0.000584678
0.00209153
0.00268422
0.00239494
0.00211264
0.00202943
0.00289821
0.00437347
0.00642716
0.00898514
0.0114548
0.0136918
0.000734665
0.00309923
0.00307359
0.0026781
0.00271689
0.00355082
0.00571831
0.00823592
0.0110667
0.0140133
0.0166589
0.0189714
0.000851433
0.0036773
0.00367671
0.00348147
0.00414248
0.0062367
0.00908859
0.0119521
0.0149929
0.0179207
0.0205402
0.0228282
0.000954495
0.00441919
0.00482831
0.00495186
0.00648593
0.00917303
0.0120609
0.0150129
0.0179123
0.0207124
0.0232405
0.0254615
0.00103826
0.00505461
0.00596747
0.00689311
0.00909919
0.0118893
0.0147155
0.017517
0.0202571
0.022818
0.0251378
0.0271968
0.0011302
0.00611388
0.0077016
0.00967475
0.0121816
0.0148214
0.0174138
0.0199301
0.0223314
0.0245416
0.0265349
0.0283053
0.00123958
0.0074371
0.010437
0.0131972
0.0157188
0.0180183
0.0201458
0.022129
0.0239675
0.0256857
0.0272327
0.028634
0.00139751
0.00899443
0.0130662
0.016
0.018339
0.0202123
0.0218379
0.0233022
0.0246622
0.0259641
0.0271829
0.0283266
0.00160267
0.00856178
0.01412
0.0173155
0.0194667
0.0211701
0.0225749
0.0237858
0.0248899
0.0259381
0.0269453
0.0279195
0.00281796
0.00830313
0.014921
0.0184239
0.0203158
0.021949
0.0232114
0.0242674
0.0252146
0.0260963
0.0269395
0.0277592
0.0017728
0.00179234
0.00179675
0.00179651
0.00178756
0.00175569
0.0017092
0.00163671
0.00153832
0.00140722
0.00121935
0.000589103
0.00851366
0.00991014
0.0107963
0.0110536
0.0107497
0.0101143
0.00908845
0.0077232
0.00597621
0.00366633
0.0017749
0.00100352
0.0156148
0.0170038
0.0177548
0.0179049
0.0175318
0.016627
0.0151672
0.0131194
0.0104623
0.00717335
0.00322592
0.0013214
0.0208912
0.022324
0.0232338
0.0236093
0.0234258
0.0226196
0.0211124
0.018774
0.015479
0.0111447
0.00555314
0.00161329
0.0247462
0.0262489
0.0273078
0.0278902
0.0279466
0.0274057
0.0261419
0.023934
0.0203156
0.0151723
0.00814662
0.00190026
0.0273525
0.028892
0.0300631
0.0308406
0.0311902
0.0310416
0.030215
0.028376
0.0250188
0.0194072
0.0111965
0.00219714
0.0289809
0.0304746
0.0316682
0.0325624
0.0331639
0.03343
0.0331898
0.0320316
0.0292004
0.0235845
0.0144337
0.00250553
0.0298523
0.0311797
0.0322894
0.0332084
0.033969
0.0345734
0.0349146
0.0345964
0.0326765
0.027458
0.0174692
0.00284751
0.0299059
0.0310688
0.0321049
0.0330226
0.0338663
0.0346937
0.0354961
0.0360086
0.0352782
0.030982
0.0201988
0.00322425
0.0294161
0.0304635
0.031424
0.0323161
0.0331836
0.0341178
0.0351751
0.0363085
0.0368346
0.0340873
0.0233203
0.00362657
0.0288959
0.0298405
0.0307416
0.0315876
0.0323821
0.0332075
0.0342947
0.0357095
0.0370146
0.036362
0.0270438
0.00407679
0.0285718
0.0293732
0.030155
0.0309737
0.0317977
0.0325113
0.0332944
0.0345239
0.0362353
0.0373213
0.0311043
0.00461377
0.000293648
0.000619866
0.000642046
0.000639086
0.000615074
0.000591724
0.000648445
0.00106451
0.00153468
0.00170561
0.00177984
0.00183901
0.000477415
0.00122993
0.00167724
0.00158713
0.00101334
0.000857631
0.00156921
0.0019556
0.00301733
0.00422308
0.00594112
0.00773073
0.000624608
0.00224309
0.00271881
0.00233885
0.00209043
0.00227035
0.00349643
0.00515723
0.00751422
0.0102444
0.0128562
0.0152239
0.000784632
0.00321565
0.00310981
0.00276882
0.00302625
0.00441291
0.00680985
0.00951568
0.0126069
0.0157037
0.0184718
0.0208877
0.000905865
0.00391445
0.0039968
0.00393387
0.00504996
0.00753161
0.0104403
0.0135496
0.0167852
0.0198602
0.0226037
0.0249902
0.0010116
0.00481454
0.00544374
0.00580905
0.00767322
0.0104938
0.0135524
0.0166994
0.0198459
0.0228031
0.0254597
0.0277824
0.00109135
0.00545518
0.00666208
0.00783019
0.0102379
0.0131848
0.016191
0.0192314
0.0221782
0.0249248
0.027404
0.0295924
0.00117734
0.00647345
0.00827906
0.0103992
0.0131296
0.016002
0.0188482
0.0216287
0.0242456
0.0266504
0.0288189
0.0307344
0.00128225
0.00762861
0.0108665
0.0138314
0.0166266
0.0192007
0.0215992
0.0238389
0.0258979
0.0277822
0.0295135
0.0310809
0.00143116
0.00909175
0.0135879
0.0168486
0.0194493
0.021575
0.0234269
0.0251054
0.0266461
0.028087
0.0294626
0.030765
0.00164007
0.00886851
0.0148862
0.0183592
0.0207346
0.0226635
0.0242779
0.0256729
0.026946
0.0281319
0.0292615
0.0303611
0.00289861
0.00878931
0.0158543
0.0196462
0.0218187
0.0236808
0.025148
0.0263616
0.0274337
0.0284099
0.0293226
0.0301958
0.00186927
0.00188789
0.00188949
0.00188871
0.00187268
0.00183799
0.0017837
0.00170548
0.00159701
0.00145897
0.00126198
0.000611783
0.00947393
0.0109067
0.0117695
0.011973
0.011664
0.0109494
0.00982125
0.0083087
0.00641359
0.0039076
0.00186424
0.00103853
0.0172003
0.0186171
0.019345
0.0194309
0.0190022
0.0179881
0.016381
0.0141401
0.0112423
0.00767645
0.00342311
0.00136479
0.0228623
0.0243268
0.0252211
0.0255533
0.0252966
0.0243793
0.0227179
0.0201642
0.0165861
0.0118817
0.00588933
0.00166662
0.0269708
0.0285049
0.0295594
0.0301042
0.0300913
0.0294469
0.0280335
0.0256102
0.0217308
0.0161853
0.00864895
0.00196204
0.029743
0.0313197
0.032496
0.033249
0.0335523
0.0333287
0.0323848
0.0303598
0.0267054
0.0206773
0.0118552
0.00226818
0.0314665
0.0330082
0.0342119
0.0350888
0.0356519
0.0358549
0.0355167
0.0342016
0.0311072
0.0250612
0.0152456
0.00258574
0.0323842
0.0337644
0.0348886
0.0357996
0.0365313
0.0370865
0.037351
0.0369075
0.0347604
0.029103
0.0183596
0.00293909
0.0324722
0.0336828
0.0347285
0.0356368
0.0364589
0.0372493
0.0379945
0.0384133
0.0375003
0.0327945
0.0211965
0.00332337
0.0319714
0.0330547
0.0340347
0.0349205
0.0357736
0.0366737
0.037686
0.0387521
0.0391232
0.0360905
0.0244036
0.00373099
0.0313999
0.0323707
0.0332753
0.0340995
0.0348801
0.0356939
0.0367492
0.0380541
0.0392621
0.0382405
0.028099
0.00417951
0.0310308
0.0318278
0.0325906
0.0333375
0.0341106
0.0348359
0.0355783
0.0368111
0.0384502
0.0392273
0.0320113
0.0046968
0.000275897
0.000584782
0.000610636
0.00060749
0.000590778
0.000560351
0.000589842
0.000864271
0.00139658
0.00160018
0.00168076
0.00173968
0.000448372
0.00116142
0.00162018
0.00161053
0.00111044
0.00069873
0.00136878
0.00170769
0.00252015
0.00368529
0.00519817
0.00684
0.000584678
0.00209153
0.00268422
0.00239494
0.00211264
0.00202943
0.00289821
0.00437347
0.00642717
0.00898514
0.0114548
0.0136918
0.000734665
0.00309923
0.00307359
0.00267809
0.00271689
0.00355081
0.00571831
0.00823592
0.0110667
0.0140133
0.0166589
0.0189714
0.000851433
0.0036773
0.0036767
0.00348147
0.00414248
0.0062367
0.00908859
0.0119521
0.0149929
0.0179207
0.0205402
0.0228282
0.000954495
0.00441919
0.00482831
0.00495186
0.00648593
0.00917303
0.0120609
0.0150129
0.0179123
0.0207124
0.0232405
0.0254615
0.00103826
0.00505461
0.00596747
0.00689311
0.00909919
0.0118893
0.0147155
0.017517
0.0202571
0.022818
0.0251378
0.0271968
0.0011302
0.00611389
0.00770161
0.00967476
0.0121816
0.0148214
0.0174138
0.0199301
0.0223314
0.0245416
0.0265349
0.0283053
0.00123959
0.00743711
0.010437
0.0131972
0.0157188
0.0180183
0.0201458
0.022129
0.0239675
0.0256857
0.0272327
0.028634
0.00139751
0.00899444
0.0130662
0.016
0.018339
0.0202123
0.0218379
0.0233023
0.0246622
0.0259642
0.0271829
0.0283266
0.00160267
0.00856178
0.01412
0.0173155
0.0194667
0.0211701
0.0225749
0.0237858
0.0248899
0.0259382
0.0269453
0.0279195
0.00281796
0.00830312
0.014921
0.0184239
0.0203158
0.021949
0.0232114
0.0242674
0.0252146
0.0260963
0.0269396
0.0277592
0.0017728
0.00179234
0.00179675
0.00179651
0.00178756
0.00175569
0.0017092
0.00163671
0.00153832
0.00140722
0.00121935
0.000589104
0.00851367
0.00991014
0.0107963
0.0110536
0.0107497
0.0101143
0.00908846
0.00772321
0.00597621
0.00366633
0.0017749
0.00100352
0.0156148
0.0170038
0.0177548
0.0179049
0.0175318
0.016627
0.0151672
0.0131194
0.0104623
0.00717336
0.00322593
0.0013214
0.0208912
0.022324
0.0232339
0.0236093
0.0234258
0.0226196
0.0211124
0.0187741
0.015479
0.0111447
0.00555315
0.00161329
0.0247463
0.0262489
0.0273078
0.0278903
0.0279466
0.0274057
0.0261419
0.023934
0.0203156
0.0151724
0.00814663
0.00190026
0.0273525
0.028892
0.0300631
0.0308406
0.0311903
0.0310416
0.030215
0.028376
0.0250188
0.0194072
0.0111965
0.00219714
0.0289809
0.0304746
0.0316682
0.0325625
0.033164
0.03343
0.0331899
0.0320317
0.0292004
0.0235845
0.0144337
0.00250553
0.0298523
0.0311797
0.0322895
0.0332084
0.033969
0.0345735
0.0349147
0.0345965
0.0326765
0.027458
0.0174692
0.00284751
0.0299059
0.0310689
0.0321049
0.0330226
0.0338664
0.0346937
0.0354961
0.0360086
0.0352782
0.030982
0.0201989
0.00322425
0.0294161
0.0304636
0.031424
0.0323162
0.0331836
0.0341179
0.0351752
0.0363085
0.0368346
0.0340873
0.0233204
0.00362657
0.028896
0.0298405
0.0307416
0.0315876
0.0323822
0.0332075
0.0342948
0.0357095
0.0370147
0.0363621
0.0270439
0.0040768
0.0285718
0.0293732
0.0301551
0.0309737
0.0317978
0.0325113
0.0332945
0.0345239
0.0362354
0.0373213
0.0311044
0.00461378
0.0176598
0.0185046
0.0201122
0.0219123
0.0236107
0.0251536
0.0263495
0.0273405
0.0282251
0.0289984
0.0296969
0.0303464
0.0276869
0.0258893
0.0255156
0.0258526
0.0265788
0.0273002
0.0278245
0.0285044
0.0292155
0.0297414
0.0301845
0.0305908
0.0340444
0.0322508
0.0309966
0.0302367
0.0299466
0.029897
0.0299613
0.0300697
0.0301834
0.0302965
0.0304076
0.0305804
0.0361825
0.034919
0.0337378
0.0327411
0.0319717
0.031377
0.0309085
0.0306562
0.0304326
0.0302207
0.0300419
0.0298406
0.0309553
0.0315345
0.0320909
0.0326374
0.0332279
0.0339714
0.0347343
0.0355743
0.0370323
0.0390095
0.0398662
0.0185941
0.0309513
0.031294
0.0316336
0.0319919
0.0323908
0.0328676
0.0335811
0.0343006
0.0353789
0.0373656
0.0414835
0.0305709
0.0306653
0.0307659
0.0308954
0.0310992
0.031389
0.0317805
0.0323428
0.0331308
0.0340911
0.0355722
0.0393831
0.0359088
0.0296913
0.0296587
0.0297636
0.030092
0.0305369
0.0310944
0.03178
0.0327136
0.0337576
0.0348655
0.0373089
0.0370771
0.016634
0.0171559
0.0186179
0.0202122
0.0216899
0.0230047
0.0240332
0.0249413
0.0257782
0.0265307
0.027232
0.027904
0.0264128
0.0243182
0.0236436
0.0237297
0.0241804
0.0246895
0.0252206
0.0259067
0.0266161
0.0271793
0.0277088
0.0282023
0.0329004
0.0306861
0.028951
0.0279526
0.02744
0.027277
0.0273185
0.027475
0.0277044
0.0278937
0.0280981
0.0283341
0.035224
0.0334705
0.0319569
0.0306634
0.0296881
0.0290556
0.028627
0.0283102
0.0281657
0.0280699
0.0279965
0.0279431
0.0285595
0.0292001
0.0298191
0.0304351
0.0310831
0.0318478
0.0324917
0.0334483
0.0350208
0.0372527
0.0392234
0.0190322
0.0286811
0.0291395
0.0295668
0.029984
0.0304095
0.0309851
0.0316121
0.032275
0.0335419
0.035764
0.0406445
0.0312994
0.028619
0.0288667
0.0290512
0.0292301
0.0294498
0.0298211
0.0304078
0.0310394
0.0322692
0.0338926
0.0381227
0.0363946
0.0278963
0.0278267
0.0278052
0.0278548
0.0280292
0.0285094
0.0291662
0.0299664
0.0313408
0.0327323
0.0358903
0.0368586
0.0176598
0.0185046
0.0201121
0.0219123
0.0236107
0.0251535
0.0263494
0.0273404
0.028225
0.0289983
0.0296968
0.0303463
0.0276869
0.0258892
0.0255156
0.0258526
0.0265788
0.0273001
0.0278245
0.0285043
0.0292155
0.0297413
0.0301844
0.0305907
0.0340443
0.0322507
0.0309965
0.0302367
0.0299466
0.0298969
0.0299612
0.0300697
0.0301833
0.0302964
0.0304076
0.0305804
0.0361824
0.0349189
0.0337377
0.032741
0.0319717
0.031377
0.0309084
0.0306562
0.0304325
0.0302206
0.0300418
0.0298406
0.0309552
0.0315343
0.0320908
0.0326373
0.0332278
0.0339713
0.0347342
0.0355741
0.0370321
0.0390093
0.0398661
0.0185941
0.0309512
0.0312939
0.0316335
0.0319918
0.0323907
0.0328675
0.033581
0.0343005
0.0353788
0.0373654
0.0414833
0.0305709
0.0306653
0.0307659
0.0308954
0.0310991
0.031389
0.0317804
0.0323427
0.0331307
0.034091
0.035572
0.0393829
0.0359087
0.0296912
0.0296586
0.0297635
0.030092
0.0305369
0.0310943
0.0317799
0.0327135
0.0337575
0.0348653
0.0373088
0.0370769
0.016634
0.0171558
0.0186179
0.0202122
0.0216899
0.0230047
0.0240332
0.0249413
0.0257782
0.0265307
0.027232
0.027904
0.0264128
0.0243181
0.0236436
0.0237297
0.0241804
0.0246895
0.0252206
0.0259067
0.0266161
0.0271793
0.0277088
0.0282023
0.0329003
0.0306861
0.0289509
0.0279525
0.0274399
0.027277
0.0273185
0.027475
0.0277044
0.0278937
0.0280981
0.0283341
0.0352239
0.0334704
0.0319568
0.0306634
0.0296881
0.0290555
0.028627
0.0283102
0.0281657
0.0280699
0.0279965
0.0279431
0.0285596
0.0292001
0.0298191
0.0304351
0.0310831
0.0318479
0.0324918
0.0334484
0.0350209
0.0372528
0.0392235
0.0190322
0.0286811
0.0291395
0.0295668
0.029984
0.0304096
0.0309852
0.0316121
0.0322751
0.033542
0.0357641
0.0406446
0.0312994
0.028619
0.0288667
0.0290513
0.0292301
0.0294498
0.0298212
0.0304078
0.0310395
0.0322693
0.0338927
0.0381229
0.0363947
0.0278964
0.0278268
0.0278052
0.0278549
0.0280293
0.0285096
0.0291663
0.0299666
0.031341
0.0327324
0.0358905
0.0368587
0.0347746
0.0336973
0.032638
0.0317231
0.0309849
0.0303806
0.0298686
0.0294868
0.029103
0.0287003
0.02832
0.0280703
0.0329156
0.0319851
0.0310252
0.0301637
0.0294262
0.02879
0.028222
0.0277051
0.027137
0.0264737
0.0257441
0.0252139
0.0309478
0.030157
0.0292887
0.0284713
0.0277347
0.0270634
0.0264229
0.0257656
0.0249765
0.023918
0.0224409
0.0208363
0.0290285
0.028365
0.0275862
0.026811
0.0260755
0.0253692
0.0246535
0.0238558
0.0228153
0.021192
0.0182291
0.0135823
0.0282255
0.0288198
0.0295537
0.0304232
0.0313618
0.0322392
0.0331514
0.0340301
0.0348438
0.0356178
0.036036
0.0355716
0.0256744
0.0272448
0.0287612
0.0301703
0.0314909
0.0326045
0.0335578
0.0343224
0.0348777
0.0350936
0.0350434
0.0342881
0.0213583
0.0249242
0.0275778
0.0295399
0.0311038
0.0323334
0.0332813
0.0339361
0.0342218
0.0342185
0.0339243
0.0328862
0.013605
0.0216517
0.0260224
0.0285746
0.0303292
0.0316149
0.0325428
0.0330502
0.0332077
0.0331107
0.0326152
0.0314567
0.0338791
0.0322461
0.0308684
0.029723
0.0288509
0.0282157
0.027704
0.0272639
0.0269245
0.0266152
0.026352
0.0261764
0.0325928
0.0310064
0.0296365
0.0284774
0.0275303
0.0267494
0.0260562
0.0254079
0.0247969
0.0241793
0.0235906
0.0231781
0.0312823
0.0297033
0.0282858
0.0270434
0.0259659
0.025012
0.0241201
0.0232422
0.0223328
0.0212987
0.0200767
0.0189613
0.0299233
0.0283507
0.0268819
0.025549
0.0243449
0.0232349
0.0221653
0.0210717
0.0198512
0.0182588
0.0157344
0.012081
0.0261212
0.026141
0.0262294
0.0264764
0.0269685
0.0277788
0.028828
0.0300695
0.0315966
0.0331961
0.0348835
0.0353496
0.0232135
0.0236094
0.0239728
0.0244584
0.0252
0.0262384
0.0275045
0.0289283
0.0304733
0.0319588
0.0330758
0.0333829
0.0190428
0.0206099
0.0215925
0.022414
0.0233781
0.0245609
0.0259178
0.0273793
0.0288639
0.0301888
0.0310511
0.0313026
0.0120761
0.0170154
0.0192303
0.0205137
0.0216826
0.022943
0.0243082
0.0257318
0.0271275
0.028302
0.0290459
0.029287
0.0347745
0.0336972
0.0326379
0.031723
0.0309849
0.0303805
0.0298686
0.0294868
0.0291029
0.0287002
0.02832
0.0280702
0.0329155
0.031985
0.0310251
0.0301636
0.0294261
0.0287899
0.0282219
0.0277051
0.027137
0.0264737
0.0257441
0.0252138
0.0309476
0.0301569
0.0292885
0.0284712
0.0277346
0.0270633
0.0264228
0.0257655
0.0249764
0.0239179
0.0224409
0.0208363
0.0290283
0.0283648
0.027586
0.0268109
0.0260754
0.0253692
0.0246534
0.0238557
0.0228152
0.021192
0.0182291
0.0135823
0.0282255
0.0288197
0.0295536
0.0304231
0.0313617
0.0322391
0.0331512
0.03403
0.0348437
0.0356176
0.0360359
0.0355715
0.0256744
0.0272447
0.0287611
0.0301702
0.0314908
0.0326044
0.0335576
0.0343223
0.0348776
0.0350935
0.0350433
0.034288
0.0213582
0.0249241
0.0275777
0.0295398
0.0311037
0.0323333
0.0332812
0.0339359
0.0342217
0.0342184
0.0339243
0.0328862
0.013605
0.0216516
0.0260223
0.0285745
0.0303291
0.0316148
0.0325427
0.0330501
0.0332076
0.0331107
0.0326152
0.0314566
0.033879
0.032246
0.0308684
0.029723
0.0288509
0.0282157
0.0277041
0.0272639
0.0269245
0.0266152
0.0263521
0.0261764
0.0325927
0.0310063
0.0296364
0.0284774
0.0275303
0.0267495
0.0260562
0.0254079
0.024797
0.0241793
0.0235907
0.0231781
0.0312823
0.0297033
0.0282858
0.0270434
0.025966
0.025012
0.0241202
0.0232423
0.0223329
0.0212987
0.0200768
0.0189613
0.0299232
0.0283507
0.0268819
0.0255491
0.024345
0.0232351
0.0221654
0.0210718
0.0198513
0.018259
0.0157345
0.012081
0.0261213
0.0261411
0.0262295
0.0264766
0.0269686
0.027779
0.0288281
0.0300697
0.0315967
0.0331963
0.0348837
0.0353498
0.0232136
0.0236096
0.023973
0.0244587
0.0252003
0.0262387
0.0275047
0.0289285
0.0304735
0.0319589
0.0330759
0.0333831
0.0190429
0.0206101
0.0215928
0.0224143
0.0233785
0.0245612
0.0259181
0.0273795
0.0288641
0.030189
0.0310513
0.0313027
0.0120762
0.0170157
0.0192308
0.0205142
0.0216832
0.0229435
0.0243086
0.0257321
0.0271278
0.0283023
0.0290461
0.0292872
0.027218
0.0266659
0.0259689
0.025235
0.0245036
0.0237669
0.0229817
0.0220557
0.0207801
0.0185368
0.0134258
0.00297338
0.0255289
0.02507
0.0244462
0.0237528
0.0230292
0.0222692
0.0214264
0.0203962
0.0189437
0.016472
0.0115354
0.00206544
0.0239507
0.0235682
0.0230089
0.0223549
0.0216435
0.020869
0.0199838
0.018881
0.0173331
0.0148384
0.010355
0.0016876
0.0224594
0.0221395
0.021637
0.0210216
0.0203271
0.0195478
0.0186373
0.0174938
0.0159149
0.0135029
0.00947671
0.00150395
0.0210174
0.0207495
0.0202977
0.0197212
0.0190493
0.018276
0.0173581
0.0162031
0.0146403
0.0123593
0.00872752
0.00137288
0.0195656
0.0193429
0.0189384
0.0184028
0.017761
0.0170064
0.0160996
0.0149602
0.0134482
0.0113206
0.00802846
0.00126001
0.0180085
0.017828
0.0174707
0.0169813
0.0163803
0.0156603
0.0147857
0.0136892
0.0122582
0.010301
0.00732583
0.00115581
0.016189
0.0160513
0.0157456
0.0153127
0.0147686
0.0141046
0.0132896
0.0122687
0.0109539
0.00919638
0.00656223
0.00105414
0.0138514
0.0137598
0.0135149
0.013156
0.0126938
0.0121175
0.0114007
0.0105025
0.00935707
0.0078593
0.00565194
0.000947881
0.0105947
0.0105517
0.0103816
0.0101232
0.00978026
0.00933947
0.0087809
0.00808006
0.0071846
0.00605192
0.00444332
0.000825983
0.00588539
0.00588287
0.00580051
0.00567526
0.00550161
0.00526446
0.00495427
0.00456757
0.004047
0.00342496
0.00262528
0.000671893
0.000629617
0.000625745
0.000615168
0.000600316
0.000580968
0.000557052
0.000527866
0.000490746
0.000443569
0.00038379
0.000305892
0.000145618
0.0030838
0.0176425
0.024276
0.0273785
0.029284
0.0305949
0.0314687
0.0318865
0.0320126
0.0318259
0.0311669
0.0300049
0.00242001
0.0158329
0.0226897
0.026057
0.0280611
0.0293869
0.0301902
0.0305702
0.0306594
0.0304003
0.0296717
0.0285415
0.00214209
0.0146019
0.0212218
0.0246701
0.0267199
0.0280364
0.028799
0.0291526
0.0292008
0.0288872
0.0281493
0.0270733
0.00198058
0.0135816
0.0198319
0.023243
0.0252933
0.0265854
0.027317
0.027656
0.0276632
0.0273122
0.0266002
0.0255933
0.00185572
0.012634
0.0184731
0.0217725
0.0237862
0.0250404
0.0257481
0.0260632
0.0260355
0.0256728
0.025003
0.0240714
0.0017435
0.0116871
0.0170937
0.0202277
0.0221679
0.023371
0.0240494
0.0243341
0.0242774
0.0239182
0.0232989
0.0224424
0.00163262
0.0106873
0.015628
0.0185415
0.0203651
0.021496
0.0221279
0.0223765
0.0222956
0.0219465
0.0213734
0.0205964
0.00151595
0.00956731
0.0139756
0.0165893
0.0182361
0.0192558
0.0198163
0.0200188
0.0199162
0.0195785
0.0190458
0.0183607
0.00139098
0.00821753
0.0119528
0.0141447
0.0155247
0.0163739
0.0168276
0.0169705
0.0168515
0.0165291
0.0160437
0.0154815
0.00124403
0.00647593
0.00923448
0.0108117
0.0118004
0.0124025
0.0127085
0.0127869
0.012666
0.0123788
0.0119918
0.0115825
0.00105735
0.00393491
0.00525594
0.0060063
0.00648651
0.006778
0.00691246
0.00694737
0.00685874
0.00669577
0.00648014
0.00624631
0.000249938
0.000434243
0.000554053
0.000628276
0.000678761
0.000712988
0.000733125
0.000741275
0.000737815
0.000727399
0.000711929
0.000692412
0.0285374
0.0269896
0.0254946
0.0240977
0.0227991
0.0215709
0.0203615
0.0190886
0.0175891
0.0154181
0.0110318
0.00249324
0.0271481
0.0256513
0.0241671
0.0227466
0.0213975
0.0200974
0.0187955
0.0173977
0.0157153
0.0132918
0.00893847
0.00152187
0.0257652
0.0243442
0.0229071
0.0215049
0.0201499
0.0188245
0.0174797
0.016019
0.0142577
0.0118043
0.00779887
0.00114746
0.024378
0.023051
0.0216891
0.0203397
0.0190172
0.0177076
0.0163656
0.0149002
0.0131477
0.0107998
0.00723787
0.00100622
0.0229502
0.0217278
0.0204586
0.0191859
0.0179246
0.0166633
0.0153618
0.0139385
0.0122565
0.0100777
0.00692811
0.000944564
0.0214179
0.0203013
0.0191335
0.0179529
0.0167733
0.0155852
0.0143533
0.0130068
0.011433
0.00944174
0.00663018
0.000901703
0.0196759
0.0186619
0.0176008
0.0165246
0.0154442
0.0143511
0.0132141
0.0119719
0.0105315
0.00873139
0.00624746
0.000869519
0.0175602
0.0166508
0.0157072
0.0147528
0.0137938
0.0128212
0.0118071
0.0106983
0.0094189
0.00782197
0.0057076
0.000831235
0.0148236
0.0140431
0.0132435
0.0124427
0.0116395
0.0108239
0.00997145
0.00903626
0.00796197
0.00660263
0.00492406
0.000782491
0.0110858
0.0105052
0.00989755
0.00930287
0.00870707
0.00810046
0.00746341
0.00675715
0.00595519
0.00488903
0.00372112
0.000712969
0.00598143
0.00570045
0.00539757
0.00508569
0.00476922
0.00444542
0.00410379
0.00371323
0.0032945
0.0026632
0.00208153
0.000612138
0.000668756
0.000642015
0.000612716
0.000582144
0.000550919
0.000518743
0.000485409
0.000449198
0.000410107
0.000357733
0.000305608
0.000189608
0.00268863
0.0129018
0.016979
0.0187945
0.0201456
0.0214359
0.0227624
0.0241131
0.0254096
0.02647
0.0271493
0.0273979
0.00194565
0.0108912
0.0151623
0.0172912
0.0187535
0.0200389
0.0213047
0.0225719
0.0237738
0.0247457
0.0253846
0.0256455
0.00158652
0.00956224
0.013706
0.0159597
0.0174716
0.0187282
0.019927
0.0211138
0.0222328
0.0231347
0.0237443
0.0240169
0.00137214
0.00856089
0.0124899
0.0147472
0.0162542
0.0174656
0.0185998
0.0197174
0.0207691
0.021616
0.022203
0.0224856
0.00121895
0.007732
0.0114095
0.0135927
0.0150487
0.0162009
0.0172759
0.0183391
0.0193416
0.0201481
0.0207187
0.0210108
0.00110095
0.00697578
0.0103877
0.0124343
0.0137959
0.014872
0.01589
0.0169127
0.0178848
0.0186656
0.0192264
0.0195303
0.00100003
0.00625394
0.00935806
0.0112064
0.0124277
0.0134032
0.014357
0.0153457
0.016302
0.0170695
0.0176251
0.0179454
0.000906235
0.00552998
0.0082488
0.00983009
0.0108602
0.0117006
0.0125677
0.0135119
0.0144543
0.01521
0.0157574
0.016098
0.000812108
0.00473972
0.00695733
0.00819445
0.00898128
0.00964331
0.010381
0.0112421
0.0121432
0.0128648
0.0133804
0.013735
0.000707827
0.00375184
0.00530392
0.00610044
0.00658999
0.00702213
0.00755704
0.00825055
0.00904468
0.00969983
0.0101377
0.0104652
0.000577772
0.00227995
0.00301
0.0033267
0.00350889
0.00368597
0.00396109
0.00439054
0.00488853
0.00530673
0.0055986
0.00579327
0.000125155
0.000264613
0.000326511
0.000361973
0.000389559
0.000421598
0.0004628
0.00051079
0.000553171
0.000585928
0.000610218
0.000624909
0.0272178
0.0266657
0.0259687
0.0252349
0.0245034
0.0237668
0.0229816
0.0220556
0.02078
0.0185367
0.0134257
0.00297338
0.0255287
0.0250698
0.024446
0.0237526
0.023029
0.0222691
0.0214263
0.020396
0.0189436
0.0164719
0.0115354
0.00206543
0.0239504
0.023568
0.0230087
0.0223547
0.0216433
0.0208688
0.0199837
0.0188808
0.0173329
0.0148383
0.0103549
0.00168759
0.0224591
0.0221392
0.0216367
0.0210214
0.0203269
0.0195476
0.0186371
0.0174936
0.0159147
0.0135027
0.00947657
0.00150393
0.0210171
0.0207492
0.0202975
0.0197209
0.019049
0.0182758
0.0173578
0.0162029
0.01464
0.0123591
0.00872735
0.00137285
0.0195653
0.0193426
0.0189381
0.0184025
0.0177607
0.0170062
0.0160993
0.01496
0.0134479
0.0113203
0.00802828
0.00125997
0.0180081
0.0178277
0.0174704
0.016981
0.01638
0.01566
0.0147855
0.0136889
0.0122579
0.0103007
0.00732567
0.00115576
0.0161887
0.0160511
0.0157453
0.0153124
0.0147684
0.0141044
0.0132894
0.0122684
0.0109537
0.00919617
0.00656212
0.00105407
0.0138512
0.0137597
0.0135147
0.0131558
0.0126936
0.0121173
0.0114006
0.0105023
0.00935693
0.00785919
0.00565193
0.000947795
0.0105946
0.0105515
0.0103815
0.0101231
0.00978018
0.0093394
0.00878082
0.00807999
0.00718456
0.00605192
0.00444341
0.000825876
0.00588532
0.00588281
0.00580046
0.00567521
0.00550157
0.00526442
0.00495423
0.00456754
0.00404698
0.00342497
0.00262536
0.000671759
0.000629601
0.00062573
0.000615154
0.000600302
0.000580955
0.000557038
0.000527852
0.000490731
0.000443552
0.000383769
0.000305869
0.000145562
0.0030838
0.0176425
0.0242759
0.0273784
0.0292838
0.0305948
0.0314686
0.0318864
0.0320125
0.0318258
0.0311668
0.0300048
0.00242
0.0158328
0.0226896
0.0260569
0.0280609
0.0293867
0.0301901
0.0305701
0.0306593
0.0304002
0.0296716
0.0285414
0.00214208
0.0146018
0.0212217
0.02467
0.0267197
0.0280363
0.0287989
0.0291525
0.0292007
0.0288871
0.0281492
0.0270733
0.00198057
0.0135815
0.0198318
0.0232428
0.0252932
0.0265852
0.0273169
0.0276559
0.0276631
0.0273121
0.0266001
0.0255933
0.00185572
0.0126339
0.018473
0.0217724
0.0237861
0.0250402
0.025748
0.0260631
0.0260354
0.0256727
0.025003
0.0240714
0.00174349
0.0116871
0.0170936
0.0202276
0.0221678
0.0233708
0.0240493
0.024334
0.0242773
0.0239182
0.0232988
0.0224424
0.00163261
0.0106872
0.0156279
0.0185414
0.020365
0.0214959
0.0221278
0.0223764
0.0222955
0.0219464
0.0213733
0.0205963
0.00151594
0.00956728
0.0139755
0.0165892
0.0182361
0.0192557
0.0198162
0.0200188
0.0199161
0.0195784
0.0190457
0.0183607
0.00139096
0.00821751
0.0119528
0.0141446
0.0155247
0.0163739
0.0168276
0.0169705
0.0168515
0.0165291
0.0160437
0.0154815
0.00124402
0.00647592
0.00923447
0.0108117
0.0118004
0.0124025
0.0127085
0.0127869
0.012666
0.0123788
0.0119918
0.0115825
0.00105734
0.00393491
0.00525594
0.00600629
0.0064865
0.00677799
0.00691245
0.00694735
0.00685873
0.00669576
0.00648014
0.00624631
0.000249933
0.000434238
0.000554048
0.000628271
0.000678756
0.000712983
0.000733121
0.000741271
0.000737811
0.000727396
0.000711927
0.00069241
0.0285374
0.0269896
0.0254947
0.0240978
0.0227992
0.0215711
0.0203617
0.0190888
0.0175893
0.0154183
0.011032
0.00249325
0.0271481
0.0256513
0.0241672
0.0227467
0.0213976
0.0200976
0.0187957
0.017398
0.0157155
0.0132921
0.00893869
0.00152192
0.0257652
0.0243442
0.0229071
0.021505
0.0201501
0.0188247
0.0174799
0.0160194
0.014258
0.0118047
0.00779918
0.00114756
0.024378
0.023051
0.0216892
0.0203398
0.0190173
0.0177078
0.0163659
0.0149006
0.0131481
0.0108002
0.00723823
0.00100634
0.0229502
0.0217278
0.0204587
0.0191861
0.0179248
0.0166636
0.0153621
0.013939
0.012257
0.0100782
0.00692839
0.00094471
0.0214179
0.0203014
0.0191336
0.017953
0.0167734
0.0155854
0.0143536
0.0130072
0.0114334
0.00944219
0.00663034
0.000901863
0.0196759
0.018662
0.0176009