/*--------------------------------*- C++ -*----------------------------------*\
| =========                 |                                                 |
| \\      /  F ield         | OpenFOAM: The Open Source CFD Toolbox           |
|  \\    /   O peration     | Version:  2212                                  |
|   \\  /    A nd           | Website:  www.openfoam.com                      |
|    \\/     M anipulation  |                                                 |
\*---------------------------------------------------------------------------*/
FoamFile
{
    version     2.0;
    format      ascii;
    arch        "LSB;label=32;scalar=64";
    class       volScalarField;
    location    "0.06";
    object      p;
}
// * * * * * * * * * * * * * * * * * * * * * * * * * * * * * * * * * * * * * //

dimensions      [1 -1 -2 0 0 0 0];

internalField   nonuniform List<scalar> 
3072
(
97590.2
97578.4
97570
97561.9
97560.1
97559.2
97561.3
97560.6
97576.5
97603.8
97598.9
97560.6
97680.8
97648.1
97638.1
97628.9
97630.7
97635.5
97654.2
97683.5
97736.8
97822.9
97864.4
97879
97740.2
97691.4
97681.1
97676.1
97690.2
97715.8
97757.5
97810.9
97861.9
97913.1
97949.6
97976.2
97841.5
97786.7
97778.3
97780.7
97810.1
97859.4
97920.3
97977.5
98028.1
98070.6
98101.4
98126.2
97949.6
97904.8
97902.3
97917.5
97961.1
98021.3
98085.5
98141.2
98188.5
98225.6
98252.7
98273.4
98081.2
98046.5
98053.2
98080.6
98132.7
98194.3
98252.6
98300.9
98339.5
98369.6
98392.3
98409.4
98208.9
98195.8
98211.7
98250.3
98306
98363.9
98413.8
98452.9
98483.5
98507
98524.6
98537.6
98343.1
98349.6
98373.8
98419
98472.2
98522.4
98563
98593.9
98617.4
98634.9
98647.8
98657
98472.6
98507.3
98534.8
98581.9
98628
98668.7
98700.2
98723.5
98740.5
98752.8
98761.5
98767.4
98602.8
98657.3
98690
98737
98775
98805.3
98827.4
98843
98853.8
98861.3
98866.3
98869.3
98742.6
98819.8
98845.2
98883.7
98911.4
98930.7
98943.4
98951.5
98956.9
98960.3
98962.4
98963
98856.1
98975.8
98991.8
99013
99027.7
99036.8
99042.1
99045
99046.9
99048.1
99048.6
99047.9
97528
97512
97515.4
97538.1
97576.8
97629.1
97691.2
97756.2
97813.8
97855.6
97881.8
97858.4
97888.3
97887.5
97889.6
97893.3
97902.7
97917
97935.7
97955.3
97971.1
97990.3
98001.9
97918.2
97992.2
98001.4
98009.7
98018.6
98029.9
98041.3
98051.7
98057.5
98055.4
98054.2
98042.3
97916.9
98143.9
98156.9
98167
98174.5
98179.5
98181.7
98180.5
98172.4
98154.3
98132
98102.2
97941.6
98288.2
98298.4
98305.3
98309.2
98310.2
98307.9
98301
98287.8
98263.9
98230.6
98190.3
98014.3
98421.5
98429.7
98434.7
98436.8
98436
98431.9
98423.3
98409
98385.7
98350.5
98307.1
98134.1
98546.7
98552.6
98555.8
98556.6
98555.1
98551.1
98544.1
98532.7
98514.8
98486.5
98452.5
98299.6
98663.2
98667
98668.6
98668.7
98667.3
98664.8
98661
98655.5
98647.1
98632.7
98619.4
98506.8
98771.1
98772.9
98773.2
98772.6
98771.6
98771
98771.3
98772.8
98776.3
98780.9
98798.6
98750.6
98870.7
98870.5
98869.5
98868.1
98867.1
98868
98871.9
98880.1
98895
98919.4
98977.5
99015.5
98962.3
98960
98957.4
98954.6
98952.9
98954.1
98960
98973
98995.9
99035.8
99137.1
99271.8
99046
99041.4
99036.6
99031.6
99028.1
99027.9
99033.3
99047.3
99072.1
99117.9
99234
99494.5
97590.2
97578.4
97570
97561.9
97560.1
97559.2
97561.3
97560.6
97576.5
97603.8
97598.9
97560.6
97680.8
97648.1
97638.1
97628.9
97630.7
97635.5
97654.2
97683.5
97736.8
97822.9
97864.4
97879
97740.2
97691.4
97681.1
97676.1
97690.2
97715.8
97757.5
97810.9
97861.9
97913.1
97949.6
97976.2
97841.5
97786.7
97778.3
97780.7
97810.1
97859.4
97920.3
97977.5
98028.1
98070.6
98101.4
98126.2
97949.6
97904.8
97902.3
97917.5
97961.1
98021.3
98085.5
98141.2
98188.5
98225.6
98252.7
98273.4
98081.2
98046.5
98053.2
98080.6
98132.7
98194.3
98252.6
98300.9
98339.5
98369.6
98392.3
98409.4
98208.9
98195.8
98211.7
98250.3
98306
98363.9
98413.8
98452.9
98483.5
98507
98524.6
98537.6
98343.1
98349.6
98373.8
98419
98472.2
98522.4
98563
98593.9
98617.4
98634.9
98647.8
98657
98472.6
98507.3
98534.8
98581.9
98628
98668.7
98700.2
98723.5
98740.5
98752.8
98761.5
98767.4
98602.8
98657.3
98690
98737
98775
98805.3
98827.4
98843
98853.8
98861.3
98866.3
98869.3
98742.6
98819.8
98845.2
98883.7
98911.4
98930.7
98943.4
98951.5
98956.9
98960.3
98962.4
98963
98856.1
98975.8
98991.8
99013
99027.7
99036.8
99042.1
99045
99046.9
99048.1
99048.6
99047.9
97528
97512
97515.4
97538.1
97576.8
97629.1
97691.2
97756.2
97813.8
97855.6
97881.8
97858.4
97888.3
97887.5
97889.6
97893.3
97902.7
97917
97935.7
97955.3
97971.1
97990.3
98001.9
97918.2
97992.2
98001.4
98009.7
98018.6
98029.9
98041.3
98051.7
98057.5
98055.4
98054.2
98042.3
97916.9
98143.9
98156.9
98167
98174.5
98179.5
98181.7
98180.5
98172.4
98154.3
98132
98102.2
97941.6
98288.2
98298.4
98305.3
98309.2
98310.2
98307.9
98301
98287.8
98263.9
98230.6
98190.3
98014.3
98421.5
98429.7
98434.7
98436.8
98436
98431.9
98423.3
98409
98385.7
98350.5
98307.1
98134.1
98546.7
98552.6
98555.8
98556.6
98555.1
98551.1
98544.1
98532.7
98514.8
98486.5
98452.5
98299.6
98663.2
98667
98668.6
98668.7
98667.3
98664.8
98661
98655.5
98647.1
98632.7
98619.4
98506.8
98771.1
98772.9
98773.2
98772.6
98771.6
98771
98771.3
98772.8
98776.3
98780.9
98798.6
98750.6
98870.7
98870.5
98869.5
98868.1
98867.1
98868
98871.9
98880.1
98895
98919.4
98977.5
99015.5
98962.3
98960
98957.4
98954.6
98952.9
98954.1
98960
98973
98995.9
99035.8
99137.1
99271.8
99046
99041.4
99036.6
99031.6
99028.1
99027.9
99033.3
99047.3
99072.1
99117.9
99234
99494.5
97590.2
97578.4
97570
97561.9
97560.1
97559.2
97561.3
97560.6
97576.5
97603.8
97598.9
97560.6
97680.8
97648.1
97638.1
97628.9
97630.7
97635.5
97654.2
97683.5
97736.8
97822.9
97864.4
97879
97740.2
97691.4
97681.1
97676.1
97690.2
97715.8
97757.5
97810.9
97861.9
97913.1
97949.6
97976.2
97841.5
97786.7
97778.3
97780.7
97810.1
97859.4
97920.3
97977.6
98028.1
98070.6
98101.4
98126.2
97949.6
97904.8
97902.3
97917.5
97961.1
98021.3
98085.5
98141.2
98188.5
98225.6
98252.7
98273.4
98081.2
98046.5
98053.2
98080.6
98132.7
98194.3
98252.6
98300.9
98339.5
98369.6
98392.3
98409.4
98208.9
98195.8
98211.7
98250.3
98306
98363.9
98413.8
98452.9
98483.5
98507
98524.6
98537.6
98343.1
98349.6
98373.8
98419
98472.2
98522.4
98563
98593.9
98617.4
98634.9
98647.8
98657
98472.6
98507.3
98534.8
98581.9
98628
98668.7
98700.2
98723.5
98740.5
98752.8
98761.5
98767.4
98602.8
98657.3
98690.1
98737
98775
98805.3
98827.4
98843
98853.8
98861.3
98866.3
98869.3
98742.7
98819.8
98845.2
98883.7
98911.4
98930.7
98943.4
98951.6
98956.9
98960.3
98962.4
98963
98856.1
98975.8
98991.8
99013
99027.7
99036.8
99042.1
99045
99046.9
99048.1
99048.6
99047.9
97528
97512
97515.4
97538.1
97576.8
97629.1
97691.2
97756.2
97813.8
97855.6
97881.8
97858.4
97888.3
97887.5
97889.6
97893.3
97902.7
97917
97935.7
97955.3
97971.1
97990.3
98001.9
97918.2
97992.2
98001.4
98009.7
98018.6
98029.9
98041.3
98051.7
98057.5
98055.4
98054.2
98042.3
97916.9
98143.9
98156.9
98167
98174.5
98179.5
98181.7
98180.6
98172.4
98154.3
98132
98102.2
97941.6
98288.2
98298.4
98305.3
98309.2
98310.2
98307.9
98301
98287.8
98263.9
98230.6
98190.3
98014.3
98421.5
98429.7
98434.7
98436.8
98436
98431.9
98423.3
98409
98385.7
98350.5
98307.1
98134.1
98546.7
98552.6
98555.8
98556.6
98555.1
98551.1
98544.1
98532.7
98514.8
98486.5
98452.5
98299.6
98663.2
98667
98668.6
98668.7
98667.3
98664.8
98661
98655.5
98647.1
98632.7
98619.4
98506.8
98771.1
98772.9
98773.2
98772.6
98771.6
98771
98771.3
98772.8
98776.3
98780.9
98798.6
98750.6
98870.7
98870.5
98869.5
98868.1
98867.1
98868
98871.9
98880.1
98895
98919.4
98977.5
99015.5
98962.3
98960
98957.4
98954.6
98952.9
98954.1
98960
98973
98995.9
99035.8
99137.1
99271.8
99046
99041.4
99036.6
99031.6
99028.1
99027.9
99033.3
99047.3
99072.1
99117.9
99234
99494.5
97590.2
97578.4
97570
97561.9
97560.1
97559.2
97561.3
97560.6
97576.5
97603.8
97598.9
97560.6
97680.8
97648.1
97638.1
97628.9
97630.7
97635.5
97654.2
97683.5
97736.8
97822.9
97864.4
97879
97740.2
97691.4
97681.1
97676.1
97690.2
97715.8
97757.5
97810.9
97861.9
97913.1
97949.6
97976.2
97841.5
97786.7
97778.3
97780.7
97810.1
97859.4
97920.3
97977.5
98028.1
98070.6
98101.4
98126.2
97949.6
97904.8
97902.3
97917.5
97961.1
98021.3
98085.5
98141.2
98188.5
98225.6
98252.7
98273.4
98081.2
98046.5
98053.2
98080.6
98132.7
98194.3
98252.6
98300.9
98339.5
98369.6
98392.3
98409.4
98208.9
98195.8
98211.7
98250.3
98306
98363.9
98413.8
98452.9
98483.5
98507
98524.6
98537.6
98343.1
98349.6
98373.8
98419
98472.2
98522.4
98563
98593.9
98617.4
98634.9
98647.8
98657
98472.6
98507.3
98534.8
98581.9
98628
98668.7
98700.2
98723.5
98740.5
98752.8
98761.5
98767.4
98602.8
98657.3
98690
98737
98775
98805.3
98827.4
98843
98853.8
98861.3
98866.3
98869.3
98742.7
98819.8
98845.2
98883.7
98911.4
98930.7
98943.4
98951.5
98956.9
98960.3
98962.4
98963
98856.1
98975.8
98991.8
99013
99027.7
99036.8
99042.1
99045
99046.9
99048.1
99048.6
99047.9
97528
97512
97515.4
97538.1
97576.8
97629.1
97691.2
97756.2
97813.8
97855.6
97881.8
97858.4
97888.3
97887.5
97889.6
97893.3
97902.7
97917
97935.7
97955.3
97971.1
97990.3
98001.9
97918.2
97992.2
98001.4
98009.7
98018.6
98029.9
98041.3
98051.7
98057.5
98055.4
98054.2
98042.3
97916.9
98143.9
98156.9
98167
98174.5
98179.5
98181.7
98180.5
98172.4
98154.3
98132
98102.2
97941.6
98288.2
98298.4
98305.3
98309.2
98310.2
98307.9
98301
98287.8
98263.9
98230.6
98190.3
98014.3
98421.5
98429.7
98434.7
98436.8
98436
98431.9
98423.3
98409
98385.7
98350.5
98307.1
98134.1
98546.7
98552.6
98555.8
98556.6
98555.1
98551.1
98544.1
98532.7
98514.8
98486.5
98452.5
98299.6
98663.2
98667
98668.6
98668.7
98667.3
98664.8
98661
98655.5
98647.1
98632.7
98619.4
98506.8
98771.1
98772.9
98773.2
98772.6
98771.6
98771
98771.3
98772.8
98776.3
98780.9
98798.6
98750.6
98870.7
98870.5
98869.5
98868.1
98867.1
98868
98871.9
98880.1
98895
98919.4
98977.5
99015.5
98962.3
98960
98957.4
98954.6
98952.9
98954.1
98960
98973
98995.9
99035.8
99137.1
99271.8
99046
99041.4
99036.6
99031.6
99028.1
99027.9
99033.3
99047.3
99072.1
99117.9
99234
99494.5
99117.2
99120
99113.4
99112.4
99114.6
99117.3
99118.9
99120.3
99121.8
99123.4
99124.3
99123.9
99157.2
99140
99146.9
99154.6
99161.9
99168.2
99173
99177.5
99182.1
99186.6
99190
99191.7
99174.2
99168.9
99176.5
99184.6
99193.3
99202.4
99211.6
99221.1
99231
99240.9
99248.8
99255.3
99187.5
99190.5
99196.5
99204.1
99213.6
99225.6
99239.5
99255.4
99272.8
99290.9
99307.9
99323.7
99121.7
99114.6
99107.2
99098.8
99092
99088.5
99090.5
99101.2
99120.3
99152.7
99191.4
99291.6
99190.1
99179.8
99169.3
99156.3
99144.6
99135.5
99131.5
99136.2
99148.1
99171.5
99185.2
99227.1
99254
99237.9
99223.8
99204.6
99186.2
99168.8
99156.3
99152.2
99155.6
99171.9
99179.4
99202.8
99322.7
99294.1
99275.1
99247
99220
99191.9
99167.9
99150.8
99143.4
99152.4
99160.5
99186.3
99117.2
99120
99113.4
99112.4
99114.6
99117.3
99118.9
99120.3
99121.8
99123.4
99124.3
99123.9
99157.2
99140
99146.9
99154.6
99161.9
99168.2
99173
99177.5
99182.1
99186.6
99190
99191.7
99174.2
99168.9
99176.5
99184.6
99193.3
99202.4
99211.6
99221.1
99231
99240.9
99248.8
99255.3
99187.5
99190.5
99196.5
99204.1
99213.6
99225.6
99239.5
99255.4
99272.8
99290.9
99307.9
99323.7
99121.7
99114.6
99107.2
99098.8
99092
99088.5
99090.5
99101.2
99120.3
99152.7
99191.4
99291.6
99190.1
99179.8
99169.3
99156.3
99144.6
99135.5
99131.5
99136.2
99148.1
99171.5
99185.2
99227.1
99254
99237.9
99223.8
99204.6
99186.2
99168.8
99156.3
99152.2
99155.6
99171.9
99179.4
99202.8
99322.7
99294.1
99275.1
99247
99220
99191.9
99167.9
99150.8
99143.4
99152.4
99160.5
99186.3
99117.2
99120
99113.4
99112.4
99114.6
99117.3
99118.9
99120.3
99121.8
99123.4
99124.3
99123.9
99157.2
99140
99146.9
99154.6
99161.9
99168.2
99173
99177.5
99182.1
99186.6
99190
99191.7
99174.2
99168.9
99176.5
99184.6
99193.3
99202.4
99211.6
99221.1
99231
99240.9
99248.8
99255.3
99187.5
99190.5
99196.5
99204.1
99213.6
99225.6
99239.5
99255.4
99272.8
99290.9
99307.9
99323.7
99121.7
99114.6
99107.2
99098.8
99092
99088.5
99090.5
99101.2
99120.3
99152.7
99191.4
99291.6
99190.1
99179.8
99169.3
99156.3
99144.6
99135.5
99131.5
99136.2
99148.1
99171.5
99185.2
99227.1
99254
99237.9
99223.8
99204.6
99186.2
99168.8
99156.3
99152.2
99155.6
99171.9
99179.4
99202.8
99322.7
99294.1
99275.1
99247
99220
99191.9
99167.9
99150.8
99143.4
99152.4
99160.5
99186.3
99117.2
99120
99113.4
99112.4
99114.6
99117.3
99118.9
99120.3
99121.8
99123.4
99124.3
99123.9
99157.2
99140
99146.9
99154.6
99161.9
99168.2
99173
99177.5
99182.1
99186.6
99190
99191.7
99174.2
99168.9
99176.5
99184.6
99193.3
99202.4
99211.6
99221.1
99231
99240.9
99248.8
99255.3
99187.5
99190.5
99196.5
99204.1
99213.6
99225.6
99239.5
99255.4
99272.8
99290.9
99307.9
99323.7
99121.7
99114.6
99107.2
99098.8
99092
99088.5
99090.5
99101.2
99120.3
99152.7
99191.4
99291.6
99190.1
99179.8
99169.3
99156.3
99144.6
99135.5
99131.5
99136.2
99148.1
99171.5
99185.2
99227.1
99254
99237.9
99223.8
99204.6
99186.2
99168.8
99156.3
99152.2
99155.6
99171.9
99179.4
99202.8
99322.7
99294.1
99275.1
99247
99220
99191.9
99167.9
99150.8
99143.4
99152.4
99160.5
99186.3
99204.7
99213.2
99218.9
99225.5
99233.7
99244.4
99257.2
99271.9
99288.1
99305.4
99322.5
99340.8
99228.6
99235.7
99241.3
99247.3
99254
99261.6
99269.7
99278.4
99287
99296.4
99304.8
99319
99248.1
99253.4
99257.9
99262.8
99267.6
99272.7
99277.5
99282.3
99286
99291.3
99295.3
99300.7
99262.7
99266.4
99269.5
99272.8
99275.6
99278.6
99280.9
99282.9
99283.7
99286.5
99283.2
99257.7
99354.1
99327.4
99308.6
99278.2
99250.8
99220.9
99194.5
99173.2
99161
99162.9
99167.6
99190.6
99353.9
99325.5
99315.7
99291.1
99271.5
99249.1
99230.3
99215.1
99206.2
99206
99208.3
99220.7
99374.8
99325.6
99324.4
99302.5
99287.7
99269.8
99255.3
99243.4
99236.4
99235.3
99236.4
99243.5
99419.6
99323.9
99331.3
99312.1
99300.3
99285.4
99273.7
99263.9
99257.9
99255.9
99255.8
99259.7
99204.7
99213.2
99218.9
99225.5
99233.7
99244.4
99257.2
99271.9
99288.1
99305.4
99322.5
99340.8
99228.6
99235.7
99241.3
99247.3
99254
99261.6
99269.7
99278.4
99287
99296.4
99304.8
99319
99248.1
99253.4
99257.9
99262.8
99267.6
99272.7
99277.5
99282.3
99286
99291.3
99295.3
99300.7
99262.7
99266.4
99269.5
99272.8
99275.6
99278.6
99280.9
99282.9
99283.7
99286.5
99283.2
99257.7
99354.1
99327.4
99308.6
99278.2
99250.8
99220.9
99194.5
99173.2
99161
99162.9
99167.6
99190.6
99353.9
99325.5
99315.7
99291.1
99271.5
99249.1
99230.3
99215.1
99206.2
99206
99208.3
99220.7
99374.8
99325.6
99324.4
99302.5
99287.7
99269.8
99255.3
99243.4
99236.4
99235.3
99236.4
99243.5
99419.6
99323.9
99331.3
99312.1
99300.3
99285.4
99273.7
99263.9
99257.9
99255.9
99255.8
99259.7
99204.7
99213.2
99218.9
99225.5
99233.7
99244.4
99257.2
99271.9
99288.1
99305.4
99322.5
99340.8
99228.6
99235.7
99241.3
99247.3
99254
99261.6
99269.7
99278.4
99287
99296.4
99304.8
99319
99248.1
99253.4
99257.9
99262.8
99267.6
99272.7
99277.5
99282.3
99286
99291.3
99295.3
99300.7
99262.7
99266.4
99269.5
99272.8
99275.6
99278.6
99280.9
99282.9
99283.7
99286.5
99283.2
99257.7
99354.1
99327.4
99308.6
99278.2
99250.8
99220.9
99194.5
99173.2
99161
99162.9
99167.6
99190.6
99353.9
99325.5
99315.7
99291.1
99271.5
99249.1
99230.3
99215.1
99206.2
99206
99208.3
99220.7
99374.8
99325.6
99324.4
99302.5
99287.7
99269.8
99255.3
99243.4
99236.4
99235.3
99236.4
99243.5
99419.6
99323.9
99331.3
99312.1
99300.3
99285.4
99273.7
99263.9
99257.9
99255.9
99255.8
99259.7
99204.7
99213.2
99218.9
99225.5
99233.7
99244.4
99257.2
99271.9
99288.1
99305.4
99322.5
99340.8
99228.6
99235.7
99241.3
99247.3
99254
99261.6
99269.7
99278.4
99287
99296.4
99304.8
99319
99248.1
99253.4
99257.9
99262.8
99267.6
99272.7
99277.5
99282.3
99286
99291.3
99295.3
99300.7
99262.7
99266.4
99269.5
99272.8
99275.6
99278.6
99280.9
99282.9
99283.7
99286.5
99283.2
99257.7
99354.1
99327.4
99308.6
99278.2
99250.8
99220.9
99194.5
99173.2
99161
99162.9
99167.6
99190.6
99353.9
99325.5
99315.7
99291.1
99271.5
99249.1
99230.3
99215.1
99206.2
99206
99208.3
99220.7
99374.8
99325.6
99324.4
99302.5
99287.7
99269.8
99255.3
99243.4
99236.4
99235.3
99236.4
99243.5
99419.6
99323.9
99331.3
99312.1
99300.3
99285.4
99273.7
99263.9
99257.9
99255.9
99255.8
99259.7
99272.7
99274.9
99276.5
99278.2
99279.3
99280.3
99280.2
99279.7
99276.2
99271.1
99259.8
99206.5
99278.9
99279.6
99279.9
99280.3
99280
99279.6
99277.7
99275
99270
99267
99262.3
99237.6
99282.2
99281.8
99281.1
99280.6
99279.3
99277.5
99274.7
99273.3
99270.8
99266.1
99260.7
99242.1
99283.6
99282.6
99281.1
99279.6
99277.6
99276.8
99275.6
99273.7
99270.7
99266.4
99262.1
99249.9
99284
99282.2
99280.4
99279.7
99278.8
99277.5
99275.4
99273
99270
99266
99262
99253.6
99283.9
99282.7
99281.5
99280.2
99278.6
99277
99275.2
99273
99270.1
99266.6
99263.1
99256.9
99284.9
99283.3
99281.5
99280.2
99278.6
99276.9
99274.8
99272.6
99269.7
99266.5
99263.4
99259.1
99285.2
99283.5
99281.8
99280.2
99278.5
99276.9
99274.9
99272.6
99269.9
99266.9
99264.1
99260.7
99285.5
99283.7
99281.8
99280.3
99278.4
99276.7
99274.6
99272.4
99269.7
99267.1
99264.4
99261.9
99285.9
99283.8
99282
99280.2
99278.5
99276.7
99274.7
99272.4
99269.9
99267.2
99264.8
99262.6
99285.9
99284
99282
99280.3
99278.4
99276.6
99274.5
99272.3
99269.8
99267.4
99264.9
99263.1
99286.2
99283.9
99282.2
99280.2
99278.6
99276.6
99274.6
99272.3
99269.9
99267.4
99265.1
99263.3
99517
99318.6
99334.9
99318.8
99309.1
99296.5
99287
99278.7
99273.4
99270.7
99269.5
99271.2
99491.2
99314
99335.9
99322.5
99314.9
99304.2
99296.2
99289
99283.8
99280.5
99278.5
99278.7
99472.6
99313.3
99336.4
99324
99318.5
99309.3
99302.1
99295.5
99290.3
99286.6
99284
99283
99437.4
99310.4
99335.4
99324.2
99320.4
99312.4
99305.5
99299.3
99294
99290
99287
99285.2
99404.3
99308.2
99334.4
99324.1
99320.8
99314
99307.2
99301.2
99295.9
99291.8
99288.5
99286.2
99375.4
99308.8
99333.6
99324.4
99320.5
99314.6
99307.9
99302.2
99296.8
99292.6
99288.9
99286.2
99348.6
99312.7
99332.7
99325.4
99320.5
99314.7
99308
99302.3
99297
99292.9
99289.3
99287.1
99326.7
99323.5
99332.5
99326.7
99320.3
99314.8
99308.1
99302.7
99297.6
99293.7
99290.2
99287.6
99306.2
99334.3
99332
99328.5
99320.9
99315.5
99308.8
99303.7
99298.2
99294.3
99290.6
99288.1
99302.1
99349.3
99334.4
99330.9
99322.6
99316
99309.6
99303.9
99298.9
99294.7
99291.2
99288.2
99257
99358.4
99335.1
99332.6
99323.7
99316.7
99310
99304.5
99299.1
99295.1
99291.2
99288.6
99331
99397.8
99341.3
99335.1
99325.4
99316.9
99310.7
99304.5
99299.6
99295.1
99291.7
99288.5
99272.7
99274.9
99276.5
99278.2
99279.3
99280.3
99280.2
99279.7
99276.2
99271.1
99259.8
99206.5
99278.9
99279.6
99279.9
99280.3
99280
99279.6
99277.7
99275
99270
99267
99262.3
99237.6
99282.2
99281.8
99281.1
99280.6
99279.3
99277.5
99274.7
99273.3
99270.8
99266.1
99260.7
99242.1
99283.6
99282.6
99281.1
99279.6
99277.6
99276.8
99275.6
99273.7
99270.7
99266.4
99262.1
99249.9
99284
99282.2
99280.4
99279.7
99278.8
99277.5
99275.4
99273
99270
99266
99262
99253.6
99283.9
99282.7
99281.5
99280.2
99278.6
99277
99275.2
99273
99270.1
99266.6
99263.1
99256.9
99284.9
99283.3
99281.5
99280.2
99278.6
99276.9
99274.8
99272.6
99269.7
99266.5
99263.4
99259.1
99285.2
99283.5
99281.8
99280.2
99278.5
99276.9
99274.9
99272.6
99269.9
99266.9
99264.1
99260.7
99285.5
99283.7
99281.8
99280.3
99278.4
99276.7
99274.6
99272.4
99269.7
99267.1
99264.4
99261.9
99285.9
99283.8
99282
99280.2
99278.5
99276.7
99274.7
99272.4
99269.9
99267.2
99264.8
99262.6
99285.9
99284
99282
99280.3
99278.4
99276.6
99274.5
99272.3
99269.8
99267.4
99264.9
99263.1
99286.2
99283.9
99282.2
99280.2
99278.6
99276.6
99274.6
99272.3
99269.9
99267.4
99265.1
99263.3
99517
99318.6
99334.9
99318.8
99309.1
99296.5
99287
99278.7
99273.4
99270.7
99269.5
99271.2
99491.2
99314
99335.9
99322.5
99314.9
99304.2
99296.2
99289
99283.8
99280.5
99278.5
99278.7
99472.6
99313.3
99336.4
99324
99318.5
99309.3
99302.1
99295.5
99290.3
99286.6
99284
99283
99437.4
99310.4
99335.4
99324.2
99320.4
99312.4
99305.5
99299.3
99294
99290
99287
99285.2
99404.3
99308.2
99334.4
99324.1
99320.8
99314
99307.2
99301.2
99295.9
99291.8
99288.5
99286.2
99375.4
99308.8
99333.6
99324.4
99320.5
99314.6
99307.9
99302.2
99296.8
99292.6
99288.9
99286.2
99348.6
99312.7
99332.7
99325.4
99320.5
99314.7
99308
99302.3
99297
99292.9
99289.3
99287.1
99326.7
99323.5
99332.5
99326.7
99320.3
99314.8
99308.1
99302.7
99297.6
99293.7
99290.2
99287.6
99306.2
99334.3
99332
99328.5
99320.9
99315.5
99308.8
99303.7
99298.2
99294.3
99290.6
99288.1
99302.1
99349.3
99334.4
99330.9
99322.6
99316
99309.6
99303.9
99298.9
99294.7
99291.2
99288.2
99257
99358.4
99335.1
99332.6
99323.7
99316.7
99310
99304.5
99299.1
99295.1
99291.3
99288.6
99331
99397.8
99341.3
99335.1
99325.4
99316.9
99310.7
99304.5
99299.6
99295.1
99291.7
99288.5
99272.7
99274.9
99276.5
99278.2
99279.3
99280.3
99280.2
99279.7
99276.2
99271.1
99259.8
99206.5
99278.9
99279.6
99279.9
99280.3
99280
99279.6
99277.7
99275
99270
99267
99262.3
99237.6
99282.2
99281.8
99281.1
99280.6
99279.3
99277.5
99274.7
99273.3
99270.8
99266.1
99260.7
99242.1
99283.6
99282.6
99281.1
99279.6
99277.6
99276.8
99275.6
99273.7
99270.7
99266.4
99262.1
99249.9
99284
99282.2
99280.4
99279.7
99278.8
99277.5
99275.4
99273
99270
99266
99262
99253.6
99283.9
99282.7
99281.5
99280.2
99278.6
99277
99275.2
99273
99270.1
99266.6
99263.1
99256.9
99284.9
99283.3
99281.5
99280.2
99278.6
99276.9
99274.8
99272.6
99269.7
99266.5
99263.4
99259.1
99285.2
99283.5
99281.8
99280.2
99278.5
99276.9
99274.9
99272.6
99269.9
99266.9
99264.1
99260.7
99285.5
99283.7
99281.8
99280.3
99278.4
99276.7
99274.6
99272.4
99269.7
99267.1
99264.4
99261.9
99285.9
99283.8
99282
99280.2
99278.5
99276.7
99274.7
99272.4
99269.9
99267.2
99264.8
99262.6
99285.9
99284
99282
99280.3
99278.4
99276.6
99274.5
99272.3
99269.8
99267.4
99264.9
99263.1
99286.2
99283.9
99282.2
99280.2
99278.6
99276.6
99274.6
99272.3
99269.9
99267.4
99265.1
99263.3
99517
99318.6
99334.9
99318.8
99309.1
99296.5
99287
99278.7
99273.4
99270.7
99269.5
99271.2
99491.2
99314
99335.9
99322.5
99314.9
99304.2
99296.2
99289
99283.8
99280.5
99278.5
99278.7
99472.6
99313.3
99336.4
99324
99318.5
99309.3
99302.1
99295.5
99290.3
99286.6
99284
99283
99437.4
99310.4
99335.4
99324.2
99320.4
99312.4
99305.5
99299.3
99294
99290
99287
99285.2
99404.3
99308.2
99334.4
99324.1
99320.8
99314
99307.2
99301.2
99295.9
99291.8
99288.5
99286.2
99375.4
99308.8
99333.6
99324.4
99320.5
99314.6
99307.9
99302.2
99296.8
99292.6
99288.9
99286.2
99348.6
99312.7
99332.7
99325.4
99320.5
99314.7
99308
99302.3
99297
99292.9
99289.3
99287.1
99326.7
99323.5
99332.5
99326.7
99320.3
99314.8
99308.1
99302.7
99297.6
99293.7
99290.2
99287.6
99306.2
99334.3
99332
99328.5
99320.9
99315.5
99308.8
99303.7
99298.2
99294.3
99290.6
99288.1
99302.1
99349.3
99334.4
99330.9
99322.6
99316
99309.6
99303.9
99298.9
99294.7
99291.2
99288.2
99257
99358.4
99335.1
99332.6
99323.7
99316.7
99310
99304.5
99299.1
99295.1
99291.3
99288.6
99331
99397.8
99341.3
99335.1
99325.4
99316.9
99310.7
99304.5
99299.6
99295.1
99291.7
99288.5
99272.7
99274.9
99276.5
99278.2
99279.3
99280.3
99280.2
99279.7
99276.2
99271.1
99259.8
99206.5
99278.9
99279.6
99279.9
99280.3
99280
99279.6
99277.7
99275
99270
99267
99262.3
99237.6
99282.2
99281.8
99281.1
99280.6
99279.3
99277.5
99274.7
99273.3
99270.8
99266.1
99260.7
99242.1
99283.6
99282.6
99281.1
99279.6
99277.6
99276.8
99275.6
99273.7
99270.7
99266.4
99262.1
99249.9
99284
99282.2
99280.4
99279.7
99278.8
99277.5
99275.4
99273
99270
99266
99262
99253.6
99283.9
99282.7
99281.5
99280.2
99278.6
99277
99275.2
99273
99270.1
99266.6
99263.1
99256.9
99284.9
99283.3
99281.5
99280.2
99278.6
99276.9
99274.8
99272.6
99269.7
99266.5
99263.4
99259.1
99285.2
99283.5
99281.8
99280.2
99278.5
99276.9
99274.9
99272.6
99269.9
99266.9
99264.1
99260.7
99285.5
99283.7
99281.8
99280.3
99278.4
99276.7
99274.6
99272.4
99269.7
99267.1
99264.4
99261.9
99285.9
99283.8
99282
99280.2
99278.5
99276.7
99274.7
99272.4
99269.9
99267.2
99264.8
99262.6
99285.9
99284
99282
99280.3
99278.4
99276.6
99274.5
99272.3
99269.8
99267.4
99264.9
99263.1
99286.2
99283.9
99282.2
99280.2
99278.6
99276.6
99274.6
99272.3
99269.9
99267.4
99265.1
99263.3
99517
99318.6
99334.9
99318.8
99309.1
99296.5
99287
99278.7
99273.4
99270.7
99269.5
99271.2
99491.2
99314
99335.9
99322.5
99314.9
99304.2
99296.2
99289
99283.8
99280.5
99278.5
99278.7
99472.6
99313.3
99336.4
99324
99318.5
99309.3
99302.1
99295.5
99290.3
99286.6
99284
99283
99437.4
99310.4
99335.4
99324.2
99320.4
99312.4
99305.5
99299.3
99294
99290
99287
99285.2
99404.3
99308.2
99334.4
99324.1
99320.8
99314
99307.2
99301.2
99295.9
99291.8
99288.5
99286.2
99375.4
99308.8
99333.6
99324.4
99320.5
99314.6
99307.9
99302.2
99296.8
99292.6
99288.9
99286.2
99348.6
99312.7
99332.7
99325.4
99320.5
99314.7
99308
99302.3
99297
99292.9
99289.3
99287.1
99326.7
99323.5
99332.5
99326.7
99320.3
99314.8
99308.1
99302.7
99297.6
99293.7
99290.2
99287.6
99306.2
99334.3
99332
99328.5
99320.9
99315.5
99308.8
99303.7
99298.2
99294.3
99290.6
99288.1
99302.1
99349.3
99334.4
99330.9
99322.6
99316
99309.6
99303.9
99298.9
99294.7
99291.2
99288.2
99257
99358.4
99335.1
99332.6
99323.7
99316.7
99310
99304.5
99299.1
99295.1
99291.2
99288.6
99331
99397.8
99341.3
99335.1
99325.4
99316.9
99310.7
99304.5
99299.6
99295.1
99291.7
99288.5
)
;

boundaryField
{
    rotor
    {
        type            zeroGradient;
    }
    stator
    {
        type            zeroGradient;
    }
    front
    {
        type            empty;
    }
    back
    {
        type            empty;
    }
}


// ************************************************************************* //
