/*--------------------------------*- C++ -*----------------------------------*\
| =========                 |                                                 |
| \\      /  F ield         | OpenFOAM: The Open Source CFD Toolbox           |
|  \\    /   O peration     | Version:  2212                                  |
|   \\  /    A nd           | Website:  www.openfoam.com                      |
|    \\/     M anipulation  |                                                 |
\*---------------------------------------------------------------------------*/
FoamFile
{
    version     2.0;
    format      ascii;
    arch        "LSB;label=32;scalar=64";
    class       volScalarField;
    location    "0.06";
    object      p;
}
// * * * * * * * * * * * * * * * * * * * * * * * * * * * * * * * * * * * * * //

dimensions      [1 -1 -2 0 0 0 0];

internalField   nonuniform List<scalar> 
3072
(
98332.3
98313.3
98302
98293.7
98291
98292.3
98292.4
98305.4
98335.9
98335
98290.6
98244.7
98415.5
98372.5
98361.7
98355.1
98359.6
98381.8
98414.8
98464.6
98564.6
98620.1
98635.7
98643.3
98476.8
98418.2
98411.7
98417.3
98444.3
98489
98548.6
98603.6
98661
98702.7
98730.8
98750.8
98595.9
98540.5
98542
98562.5
98612.8
98673.6
98733
98786.1
98831.3
98864.3
98890.1
98910.4
98720.4
98687.4
98699.9
98734.7
98791.6
98851.7
98907.5
98956.3
98995.5
99024.2
99046
99062
98855.8
98840.7
98863.8
98908.6
98967.4
99023.4
99073.5
99113.4
99144.8
99168.4
99186.1
99199.1
98980.3
98990.3
99021.1
99074.2
99132.8
99185.1
99227.6
99260.3
99284.9
99302.9
99315.8
99325
99108.8
99138.9
99176.5
99234.1
99288.8
99334.9
99370
99395.6
99413.7
99426
99434.2
99439.6
99236.7
99294.7
99332.4
99389.6
99436.9
99474.6
99501.4
99519.3
99530.8
99537.5
99541.1
99542.7
99366.2
99441.6
99483
99538.5
99577
99604.4
99621.8
99631.7
99636.3
99637.5
99636.6
99634.6
99509.4
99606
99636.5
99679.7
99706.4
99721.7
99729
99730.6
99728.7
99724.7
99719.8
99714.6
99615
99764.2
99781.2
99802.2
99814
99817.7
99816.3
99811.3
99804.5
99796.9
99789
99781.6
98210
98201.1
98214.1
98250.5
98305.2
98376.5
98458.5
98544.3
98621.7
98683.5
98723.5
98696.4
98644.3
98645.5
98650.5
98661
98678
98701.4
98730
98759.4
98784.5
98816.7
98835.7
98738.9
98760.3
98768.3
98778
98791.5
98808.1
98825.7
98842.7
98854.5
98857.4
98860.8
98851.4
98710.7
98925.6
98938
98948.2
98957.1
98964.6
98970.2
98972.6
98968.2
98952.3
98929.6
98901.2
98722.2
99073.8
99082.8
99089.5
99094.3
99097
99096.8
99092.5
99081.9
99060.1
99026
98985.6
98793.3
99208.4
99215.2
99219.8
99222.5
99223.3
99221.4
99215.8
99204.6
99184
99150.5
99108.1
98920.7
99331.4
99335.9
99338.8
99340.6
99341.2
99340.5
99337.4
99330.6
99317.1
99292.5
99263
99102.2
99443
99445.4
99447.1
99448.8
99450.6
99452.6
99454.6
99455.8
99454.8
99447.9
99445
99332.2
99543.3
99543.7
99544.5
99546.3
99549.8
99555.4
99563.6
99574.4
99588.4
99604.7
99639.2
99603.6
99632.5
99630.9
99630.7
99632.6
99637.6
99646.6
99660.7
99681
99709.6
99749.8
99832.5
99897.6
99710
99706.6
99705.3
99706.9
99712.6
99724.1
99742.5
99770
99809.4
99868.2
100000
100175
99775.2
99770.3
99767.9
99768.8
99774.4
99786.4
99806.5
99837.3
99880.5
99947.6
100097
100416
98326.2
98309.5
98299.2
98291.4
98289.5
98289.6
98291.5
98298
98320.8
98333.8
98300.6
98255.9
98412.4
98372.8
98361.9
98354.8
98358.6
98374
98405.2
98442.9
98534.7
98603.4
98621.7
98632.7
98472
98416
98408.2
98410
98434.4
98471.9
98528.8
98582
98637.3
98683.4
98712.3
98734.7
98585.5
98528.7
98527.3
98542
98587.6
98647.3
98707.8
98761.7
98808.5
98844
98870.6
98891.7
98705.1
98668.3
98676.2
98705.9
98760.7
98822.3
98880.7
98930.6
98971.7
99002.2
99024.7
99041.5
98840.7
98819.7
98838.5
98879
98937.2
98994.8
99046.5
99088.1
99120.8
99145.4
99163.8
99177.2
98966
98969.7
98996.7
99046.5
99104.8
99158
99201.5
99235.3
99260.8
99279.5
99292.9
99302.4
99096.3
99119.9
99153.9
99208.5
99262.6
99309
99344.7
99371
99389.6
99402.4
99410.9
99416.5
99224.4
99276.5
99311.3
99365.9
99412.3
99450
99477
99495.4
99507.1
99514
99517.8
99519.5
99353.8
99423.9
99463.1
99516.5
99554.3
99581.6
99599
99608.9
99613.5
99614.6
99613.5
99611.5
99496.2
99588.3
99617.4
99659.5
99685.8
99700.9
99707.8
99709.1
99706.8
99702.5
99697.1
99691.6
99602.2
99745.1
99762.2
99783.2
99795
99798.5
99796.5
99791
99783.6
99775.2
99766.6
99758.6
98221.2
98209
98218.1
98249.2
98298.2
98363.1
98438.8
98518.6
98590.8
98647.6
98684.8
98658.3
98634.8
98635.7
98638.8
98646.9
98660.5
98680.4
98705.1
98731.3
98753.3
98782
98799.9
98705.7
98745.3
98753.2
98761.5
98773.2
98787.8
98803.3
98818
98827.8
98829
98830.8
98821.8
98684.1
98906.7
98919.2
98928.9
98936.9
98943.2
98947.4
98948.3
98942.6
98925.7
98902.4
98874.9
98699.1
99053.3
99062.2
99068.5
99072.7
99074.6
99073.5
99068.3
99056.9
99034.3
98999.9
98960.7
98770
99186.6
99193.3
99197.7
99200
99200.3
99197.8
99191.2
99179.3
99157.8
99123.2
99081.5
98894.6
99308.9
99313.3
99316.1
99317.6
99317.8
99316.3
99312.5
99304.7
99290.2
99264
99233.6
99070.8
99420
99422.3
99424
99425.4
99426.8
99428.2
99429.3
99429.2
99426.6
99417.3
99411.5
99294
99520.1
99520.5
99521.2
99522.9
99525.9
99530.9
99538
99547.3
99559.3
99572.4
99601.7
99558.4
99609.3
99607.7
99607.5
99609.3
99613.9
99622.2
99635.1
99653.7
99680.2
99716.8
99792.1
99847.4
99686.8
99683.5
99682.2
99683.8
99689.4
99700.2
99717.6
99743.4
99780.8
99836.2
99960.7
100125
99751.8
99747
99744.8
99746
99751.6
99763.4
99782.7
99812.1
99853.9
99918.6
100062
100377
98332.3
98313.3
98302
98293.7
98291
98292.3
98292.4
98305.4
98335.9
98335
98290.6
98244.7
98415.5
98372.5
98361.7
98355.1
98359.6
98381.8
98414.8
98464.6
98564.6
98620.1
98635.7
98643.3
98476.8
98418.2
98411.7
98417.3
98444.3
98489
98548.6
98603.6
98661
98702.7
98730.8
98750.8
98595.9
98540.5
98542
98562.5
98612.8
98673.6
98733
98786.1
98831.3
98864.3
98890.1
98910.4
98720.4
98687.4
98699.9
98734.7
98791.6
98851.7
98907.5
98956.3
98995.5
99024.2
99046
99062
98855.8
98840.7
98863.8
98908.6
98967.4
99023.4
99073.5
99113.4
99144.8
99168.4
99186.1
99199.1
98980.3
98990.3
99021.1
99074.2
99132.8
99185.1
99227.6
99260.3
99284.9
99302.9
99315.8
99325
99108.8
99138.9
99176.5
99234.1
99288.8
99334.9
99370
99395.6
99413.7
99426
99434.2
99439.6
99236.7
99294.7
99332.3
99389.6
99436.9
99474.6
99501.4
99519.3
99530.8
99537.5
99541.1
99542.7
99366.2
99441.6
99483
99538.5
99577
99604.4
99621.8
99631.7
99636.3
99637.5
99636.6
99634.6
99509.4
99606
99636.5
99679.7
99706.4
99721.7
99729
99730.6
99728.7
99724.7
99719.8
99714.6
99615
99764.2
99781.2
99802.2
99814
99817.7
99816.3
99811.3
99804.5
99796.9
99789
99781.6
98210
98201.1
98214
98250.5
98305.2
98376.5
98458.5
98544.2
98621.7
98683.5
98723.5
98696.4
98644.3
98645.5
98650.5
98661
98678
98701.4
98730
98759.4
98784.5
98816.7
98835.7
98738.9
98760.3
98768.3
98778
98791.5
98808.1
98825.7
98842.7
98854.5
98857.4
98860.8
98851.4
98710.7
98925.6
98938
98948.2
98957.1
98964.6
98970.2
98972.6
98968.2
98952.3
98929.6
98901.2
98722.2
99073.8
99082.8
99089.5
99094.3
99097
99096.8
99092.5
99081.9
99060.1
99026
98985.6
98793.3
99208.4
99215.2
99219.8
99222.5
99223.3
99221.4
99215.8
99204.6
99184
99150.5
99108.1
98920.7
99331.4
99335.9
99338.8
99340.6
99341.2
99340.5
99337.4
99330.6
99317.1
99292.5
99263
99102.2
99443
99445.4
99447.1
99448.8
99450.6
99452.6
99454.6
99455.8
99454.8
99447.9
99445
99332.2
99543.3
99543.7
99544.5
99546.3
99549.8
99555.4
99563.6
99574.4
99588.4
99604.7
99639.2
99603.6
99632.5
99630.9
99630.7
99632.6
99637.6
99646.6
99660.7
99681
99709.6
99749.8
99832.5
99897.6
99710
99706.6
99705.3
99706.9
99712.6
99724.1
99742.5
99770
99809.4
99868.2
100000
100175
99775.2
99770.3
99767.9
99768.8
99774.4
99786.4
99806.5
99837.3
99880.5
99947.6
100097
100416
98326.2
98309.5
98299.2
98291.4
98289.5
98289.6
98291.5
98298
98320.8
98333.8
98300.6
98255.9
98412.4
98372.8
98361.9
98354.8
98358.6
98374
98405.2
98442.9
98534.7
98603.4
98621.7
98632.7
98472
98416
98408.2
98410
98434.4
98471.9
98528.8
98582
98637.3
98683.4
98712.3
98734.7
98585.5
98528.7
98527.3
98542
98587.6
98647.3
98707.8
98761.7
98808.5
98844
98870.6
98891.7
98705.1
98668.3
98676.2
98705.9
98760.7
98822.3
98880.7
98930.6
98971.7
99002.2
99024.7
99041.5
98840.7
98819.7
98838.5
98879
98937.2
98994.8
99046.5
99088.1
99120.8
99145.4
99163.8
99177.2
98966
98969.7
98996.7
99046.5
99104.8
99158
99201.5
99235.3
99260.8
99279.5
99292.9
99302.4
99096.3
99119.9
99153.9
99208.5
99262.6
99309
99344.7
99371
99389.6
99402.4
99410.9
99416.5
99224.4
99276.5
99311.3
99365.9
99412.3
99450
99477
99495.4
99507.1
99514
99517.8
99519.5
99353.8
99423.9
99463.1
99516.5
99554.3
99581.6
99599
99608.9
99613.5
99614.6
99613.5
99611.5
99496.2
99588.3
99617.4
99659.5
99685.8
99700.9
99707.8
99709.1
99706.8
99702.5
99697.1
99691.6
99602.2
99745.1
99762.2
99783.2
99795
99798.5
99796.5
99791
99783.6
99775.2
99766.6
99758.6
98221.2
98209
98218.1
98249.2
98298.2
98363.1
98438.8
98518.6
98590.8
98647.6
98684.8
98658.3
98634.8
98635.7
98638.8
98646.9
98660.5
98680.4
98705.1
98731.3
98753.3
98782
98799.9
98705.7
98745.3
98753.2
98761.5
98773.2
98787.8
98803.3
98818
98827.8
98829
98830.8
98821.8
98684.1
98906.7
98919.2
98928.9
98936.9
98943.2
98947.4
98948.3
98942.6
98925.7
98902.4
98874.9
98699.1
99053.3
99062.2
99068.5
99072.7
99074.6
99073.5
99068.3
99056.9
99034.3
98999.9
98960.7
98770
99186.6
99193.3
99197.7
99200
99200.3
99197.8
99191.2
99179.3
99157.8
99123.2
99081.5
98894.6
99308.9
99313.3
99316.1
99317.6
99317.8
99316.3
99312.5
99304.7
99290.2
99264
99233.6
99070.8
99420
99422.3
99424
99425.4
99426.8
99428.2
99429.3
99429.2
99426.6
99417.3
99411.5
99294
99520.1
99520.5
99521.2
99522.9
99525.9
99530.9
99538
99547.3
99559.3
99572.4
99601.7
99558.4
99609.3
99607.7
99607.5
99609.3
99613.9
99622.2
99635.1
99653.7
99680.2
99716.8
99792.1
99847.4
99686.8
99683.5
99682.2
99683.8
99689.4
99700.2
99717.6
99743.4
99780.8
99836.2
99960.7
100125
99751.8
99747
99744.8
99746
99751.6
99763.4
99782.7
99812.1
99853.9
99918.6
100062
100377
99910.2
99915.9
99903.3
99896
99891.4
99886.4
99879.5
99871.1
99862
99852.7
99843.6
99835.1
99944.6
99923.7
99925.8
99927.5
99927.3
99924.3
99918.5
99911
99902.5
99893.6
99884.8
99876.4
99951.8
99942.8
99946.2
99948.1
99948.2
99946.2
99942.1
99936.6
99930
99922.8
99915.5
99907.8
99955.3
99954.1
99956.8
99958.3
99958.8
99958
99955.8
99952.5
99948.5
99943.9
99938.9
99933.2
99827.8
99822.1
99818.6
99818.5
99823
99833.9
99852.6
99881.7
99919.5
99969.9
100021
100136
99869
99862.8
99858.3
99856.8
99859.5
99868
99883
99907.3
99938
99977.9
100002
100043
99901
99894.4
99888.7
99885.1
99884.8
99889.4
99899
99916.5
99939.1
99970.7
99987.3
100005
99927.6
99919.8
99911.9
99905.5
99901.1
99899.9
99902.3
99910.9
99923.6
99947
99961.3
99982.5
99898.4
99900
99887.6
99879.5
99874.4
99868.8
99861.1
99851.8
99841.8
99831.4
99821.2
99811.8
99940.7
99914.6
99913.9
99913.6
99912.3
99908.3
99901.5
99892.8
99882.9
99872.3
99861.8
99851.9
99955.6
99940.8
99940.8
99939.7
99937.6
99933.7
99927.9
99920.4
99911.5
99901.6
99891.4
99881.5
99968.1
99963
99962
99960
99957.4
99953.8
99948.9
99942.6
99935
99926.1
99916.2
99906
99803.8
99798.2
99795.3
99795.9
99800.9
99811.8
99830.3
99858.7
99896
99946.2
99999.4
100120
99843.5
99837.4
99834.1
99833.9
99837.7
99846.7
99862.2
99886.6
99917.9
99958.9
99987.3
100032
99873
99867
99863.3
99862.2
99863.9
99869.9
99880.7
99898.7
99922.2
99954.8
99974.6
99994
99897.3
99891.6
99887.9
99885.6
99884.8
99886.4
99890.3
99899.1
99911.4
99933.2
99948
99967.6
99910.2
99915.9
99903.3
99896
99891.4
99886.4
99879.5
99871.1
99862
99852.7
99843.6
99835.1
99944.6
99923.7
99925.8
99927.5
99927.3
99924.3
99918.5
99911
99902.5
99893.6
99884.8
99876.4
99951.8
99942.8
99946.2
99948.1
99948.2
99946.2
99942.1
99936.6
99930
99922.8
99915.5
99907.8
99955.3
99954.1
99956.8
99958.3
99958.8
99958
99955.8
99952.5
99948.5
99943.9
99938.9
99933.2
99827.8
99822.1
99818.6
99818.5
99823
99833.9
99852.6
99881.7
99919.5
99969.9
100021
100136
99869
99862.8
99858.3
99856.8
99859.5
99868
99883
99907.3
99938
99977.9
100002
100043
99901
99894.4
99888.7
99885.1
99884.8
99889.4
99899
99916.5
99939.1
99970.7
99987.3
100005
99927.6
99919.8
99911.9
99905.5
99901.1
99899.9
99902.3
99910.9
99923.6
99947
99961.3
99982.5
99898.4
99900
99887.6
99879.5
99874.4
99868.8
99861.1
99851.8
99841.8
99831.4
99821.2
99811.8
99940.7
99914.6
99913.9
99913.6
99912.3
99908.3
99901.5
99892.8
99882.9
99872.3
99861.8
99851.9
99955.6
99940.8
99940.8
99939.7
99937.6
99933.7
99927.9
99920.4
99911.5
99901.6
99891.4
99881.5
99968.1
99963
99962
99960
99957.4
99953.8
99948.9
99942.6
99935
99926.1
99916.2
99906
99803.8
99798.2
99795.3
99795.9
99800.9
99811.8
99830.3
99858.7
99896
99946.2
99999.4
100120
99843.5
99837.4
99834.1
99833.9
99837.7
99846.7
99862.2
99886.6
99917.9
99958.9
99987.3
100032
99873
99867
99863.3
99862.2
99863.9
99869.9
99880.7
99898.7
99922.2
99954.8
99974.6
99994
99897.3
99891.6
99887.9
99885.6
99884.8
99886.4
99890.3
99899.1
99911.4
99933.2
99948
99967.6
99956.2
99960.6
99964.5
99967.1
99968.8
99969.2
99968.4
99966.7
99964.3
99961.3
99957.9
99954.2
99958.5
99964.5
99969.8
99974
99976.9
99978.4
99978.6
99977.7
99975.9
99973.8
99971.4
99968.9
99959.8
99966.8
99973
99977.9
99981.5
99983.5
99984.2
99983.6
99982.2
99980.6
99979.1
99978
99960.4
99968.3
99975
99980.3
99984.1
99986.4
99987.1
99986.7
99985.4
99984
99983
99982.7
99950.8
99944.8
99938.8
99933.3
99928.7
99925.6
99924.5
99926.4
99930.6
99943
99951.3
99965.1
99968.3
99964.3
99961.1
99958.2
99955.9
99954.4
99953.8
99954.8
99957.1
99959.7
99960.2
99961.8
99980.7
99977.9
99976.3
99975.1
99974.1
99973.3
99972.4
99971.2
99970
99968.1
99963.9
99959.3
99990.6
99987.7
99986.5
99985.9
99985.3
99984.2
99982.3
99979.4
99975.4
99970.3
99963.4
99956.1
99965.6
99964.5
99962
99958.6
99954.6
99950.1
99944.9
99939.2
99932.7
99924.2
99915.3
99905.8
99958
99954.2
99949.6
99944.6
99939.4
99933.8
99927.9
99921.5
99914.7
99908.4
99901.6
99893.5
99952.1
99946.1
99940.3
99934.6
99929
99923.4
99917.8
99912.1
99906.3
99900.6
99895
99887.7
99947.8
99940.9
99934.6
99928.7
99923.2
99918
99912.8
99907.7
99902.6
99897.5
99892.8
99885.6
99897.2
99892
99889.3
99888
99888.1
99889.7
99892.9
99899.1
99908
99922.7
99935.4
99952
99885.2
99880.8
99879.4
99879.7
99881.5
99885.1
99890.7
99899.2
99910.5
99925.9
99938.9
99952
99878.7
99875
99874.3
99875.3
99877.9
99882.3
99889
99898.4
99910.6
99925.5
99939.4
99951.9
99875.9
99872.7
99872.3
99873.5
99876.2
99880.9
99887.8
99897.5
99909.8
99924.4
99938.5
99951.2
99956.2
99960.6
99964.5
99967.1
99968.8
99969.2
99968.4
99966.7
99964.3
99961.3
99957.9
99954.2
99958.5
99964.5
99969.8
99974
99976.9
99978.4
99978.6
99977.7
99975.9
99973.8
99971.4
99968.9
99959.8
99966.8
99973
99977.9
99981.5
99983.5
99984.2
99983.6
99982.2
99980.6
99979.1
99978
99960.4
99968.3
99975
99980.3
99984.1
99986.4
99987.1
99986.7
99985.4
99984
99983
99982.7
99950.8
99944.8
99938.8
99933.3
99928.7
99925.6
99924.5
99926.4
99930.6
99943
99951.3
99965.1
99968.3
99964.3
99961.1
99958.2
99955.9
99954.4
99953.8
99954.8
99957.1
99959.7
99960.2
99961.8
99980.7
99977.9
99976.3
99975.1
99974.1
99973.3
99972.4
99971.2
99970
99968.1
99963.9
99959.3
99990.6
99987.7
99986.5
99985.9
99985.3
99984.2
99982.3
99979.4
99975.3
99970.3
99963.4
99956.1
99965.6
99964.5
99962
99958.6
99954.6
99950.1
99944.9
99939.2
99932.7
99924.2
99915.3
99905.8
99958
99954.2
99949.6
99944.6
99939.4
99933.8
99927.9
99921.5
99914.7
99908.4
99901.6
99893.5
99952.1
99946.1
99940.3
99934.6
99929
99923.4
99917.8
99912.1
99906.3
99900.6
99895
99887.7
99947.8
99940.9
99934.6
99928.7
99923.2
99918
99912.8
99907.7
99902.6
99897.5
99892.8
99885.6
99897.2
99892
99889.3
99888
99888.1
99889.7
99892.9
99899.1
99908
99922.7
99935.4
99952
99885.2
99880.8
99879.4
99879.7
99881.5
99885.1
99890.7
99899.2
99910.5
99925.9
99938.9
99952
99878.7
99875
99874.3
99875.3
99877.9
99882.3
99889
99898.4
99910.6
99925.5
99939.4
99951.9
99875.9
99872.7
99872.3
99873.5
99876.2
99880.9
99887.8
99897.5
99909.8
99924.4
99938.5
99951.2
99960.7
99969.3
99976.4
99982
99985.8
99988.1
99988.8
99988.3
99987
99985.3
99982.9
99980.6
99961
99970.1
99977.5
99983.1
99987
99989.2
99989.8
99989.2
99987.6
99985.7
99982.8
99983.3
99961.3
99970.8
99978.4
99984.1
99987.9
99989.9
99990.4
99989.6
99987.9
99985.9
99983.3
99984.2
99961.5
99971.4
99979.1
99984.9
99988.6
99990.4
99990.7
99989.7
99987.9
99985.9
99983.9
99984.7
99961.8
99971.9
99979.8
99985.5
99989.1
99990.8
99990.8
99989.7
99987.8
99985.9
99984.4
99985
99962
99972.4
99980.4
99986.1
99989.6
99991.1
99990.9
99989.6
99987.7
99985.8
99984.6
99985.1
99962.3
99972.9
99981.1
99986.7
99990
99991.3
99990.9
99989.4
99987.4
99985.7
99984.8
99985.1
99962.6
99973.5
99981.7
99987.3
99990.4
99991.5
99990.8
99989.2
99987.2
99985.6
99984.8
99985.1
99962.9
99974.1
99982.4
99987.9
99990.9
99991.6
99990.8
99988.9
99986.9
99985.4
99984.8
99985
99963.4
99974.7
99983.1
99988.5
99991.3
99991.8
99990.7
99988.7
99986.6
99985.2
99984.8
99985
99964
99975.5
99983.9
99989.3
99991.9
99992.1
99990.7
99988.5
99986.3
99984.9
99984.6
99985
99964.8
99976.6
99985.1
99990.3
99992.5
99992.2
99990.3
99987.7
99985.6
99984.5
99984.6
99985.1
100001
99995.5
99993.2
99992.6
99991.7
99990
99987.1
99982.7
99976.8
99969.8
99961.4
99953
100002
99999.5
99997.2
99996.2
99994.9
99992.5
99988.6
99983.1
99976.1
99968.1
99959.2
99950.7
100003
100001
99999
99997.7
99995.8
99992.6
99987.9
99981.7
99974.2
99965.9
99957.2
99949
100003
100001
99999.4
99997.7
99995.1
99991.2
99985.9
99979.2
99971.6
99963.5
99955.5
99948.1
100003
100000
99998.9
99996.7
99993.5
99988.9
99983.1
99976.3
99968.8
99961.3
99954.1
99947.6
100002
99999.6
99997.9
99995.1
99991.2
99986.1
99979.9
99973.1
99966.1
99959.3
99953
99947.5
100002
99998.4
99996.5
99993
99988.5
99982.9
99976.6
99970
99963.5
99957.4
99952.1
99947.7
100001
99997.2
99994.9
99990.7
99985.7
99979.7
99973.3
99966.9
99961
99955.8
99951.5
99948
99999.7
99995.9
99993.1
99988.3
99982.8
99976.5
99970.1
99964.1
99958.7
99954.3
99950.9
99948.4
99998.6
99994.6
99991.4
99986.1
99980.1
99973.6
99967.2
99961.5
99956.7
99953
99950.4
99948.6
99997.9
99993.7
99989.9
99984.1
99977.8
99971.1
99964.8
99959.3
99955
99952
99949.9
99948.8
99996.5
99991.3
99987
99980.3
99973.5
99966.5
99960.2
99955.2
99951.6
99949.5
99948.7
99948.6
99944.6
99937.6
99931.3
99925.6
99920.4
99915.5
99910.8
99906.2
99901.6
99896.7
99892.3
99883
99942.6
99935.9
99929.9
99924.6
99919.7
99915.2
99910.9
99906.6
99902.4
99897.7
99894
99885.1
99941.7
99935.4
99929.9
99925.1
99920.6
99916.5
99912.4
99908.4
99904.5
99899.7
99896.9
99887.8
99941.5
99935.9
99931.1
99926.7
99922.6
99918.7
99914.9
99911
99907.2
99902.4
99900.2
99890.8
99942
99937.2
99932.9
99929.1
99925.3
99921.7
99918
99914.1
99910.3
99905.5
99903.5
99893.9
99942.8
99938.8
99935.2
99931.8
99928.4
99924.9
99921.3
99917.3
99913.6
99908.6
99906.6
99897.1
99943.9
99940.7
99937.7
99934.8
99931.7
99928.3
99924.7
99920.7
99916.8
99911.7
99909.6
99900.4
99945.1
99942.6
99940.2
99937.7
99934.9
99931.7
99928.2
99924.1
99920.1
99914.8
99912.4
99903.6
99946.3
99944.5
99942.7
99940.6
99938.1
99935.1
99931.6
99927.4
99923.2
99917.8
99915
99906.8
99947.3
99946.2
99944.9
99943.2
99941.1
99938.2
99934.8
99930.6
99926.4
99920.7
99917.6
99909.9
99948.2
99947.6
99946.8
99945.5
99943.5
99940.8
99937.4
99933.1
99928.6
99922.8
99919.2
99912
99949
99949.3
99949.3
99948.8
99947.5
99945.4
99942.4
99938.3
99933.9
99927.6
99923.6
99915.8
99876.6
99872.4
99871.5
99872.5
99875.1
99879.8
99886.9
99896.6
99909
99923.3
99937.5
99950.6
99874.1
99872.7
99871.2
99871.9
99874.4
99878.9
99886
99895.8
99908.1
99922.4
99936.8
99950.2
99873.4
99872.6
99871.1
99871.5
99873.7
99878.1
99885.1
99894.9
99907.3
99921.7
99936.3
99949.9
99872.7
99872.4
99871
99871.2
99873.1
99877.4
99884.3
99894
99906.5
99920.9
99935.8
99949.7
99872.3
99872.2
99870.9
99870.9
99872.6
99876.6
99883.4
99893.1
99905.7
99920.2
99935.3
99949.5
99872
99872
99870.8
99870.6
99872.1
99875.8
99882.4
99892.1
99904.7
99919.5
99934.8
99949.4
99871.8
99871.8
99870.7
99870.3
99871.5
99875
99881.4
99891.1
99903.8
99918.7
99934.4
99949.3
99871.8
99871.7
99870.6
99870.1
99870.9
99874.1
99880.3
99889.9
99902.7
99917.9
99933.9
99949.2
99871.8
99871.7
99870.6
99869.8
99870.3
99873.2
99879.1
99888.6
99901.6
99917.1
99933.5
99949.2
99871.8
99871.7
99870.7
99869.6
99869.7
99872.1
99877.8
99887.2
99900.3
99916.2
99933.1
99949.3
99871.9
99871.8
99870.7
99869.5
99869.1
99871.1
99876.5
99885.8
99899.2
99915.5
99932.8
99949.5
99871.8
99872.1
99871.2
99869.7
99868.7
99869.7
99874.2
99883.2
99896.7
99913.6
99932.1
99949.7
99960.7
99969.3
99976.4
99982
99985.8
99988.1
99988.8
99988.3
99987
99985.3
99982.9
99980.6
99961
99970.1
99977.5
99983.1
99987
99989.2
99989.8
99989.2
99987.6
99985.7
99982.8
99983.3
99961.3
99970.8
99978.4
99984.1
99987.9
99989.9
99990.4
99989.6
99987.9
99985.9
99983.3
99984.2
99961.5
99971.4
99979.1
99984.9
99988.6
99990.4
99990.7
99989.7
99987.9
99985.9
99983.9
99984.7
99961.8
99971.9
99979.8
99985.5
99989.1
99990.8
99990.8
99989.7
99987.8
99985.9
99984.4
99985
99962
99972.4
99980.4
99986.1
99989.6
99991.1
99990.9
99989.6
99987.7
99985.8
99984.6
99985.1
99962.3
99972.9
99981.1
99986.7
99990
99991.3
99990.9
99989.4
99987.4
99985.7
99984.8
99985.1
99962.6
99973.5
99981.7
99987.3
99990.4
99991.5
99990.8
99989.2
99987.2
99985.6
99984.8
99985.1
99962.9
99974.1
99982.4
99987.9
99990.9
99991.6
99990.8
99988.9
99986.9
99985.4
99984.8
99985
99963.4
99974.7
99983.1
99988.5
99991.3
99991.8
99990.7
99988.7
99986.6
99985.2
99984.8
99985
99964
99975.5
99983.9
99989.3
99991.9
99992.1
99990.7
99988.5
99986.3
99984.9
99984.6
99985
99964.8
99976.6
99985.1
99990.3
99992.5
99992.2
99990.3
99987.7
99985.6
99984.5
99984.6
99985.1
100001
99995.5
99993.2
99992.6
99991.7
99990
99987.1
99982.7
99976.8
99969.8
99961.4
99953
100002
99999.5
99997.2
99996.2
99994.9
99992.5
99988.6
99983.1
99976.1
99968.1
99959.2
99950.7
100003
100001
99999
99997.7
99995.8
99992.6
99987.9
99981.7
99974.2
99965.9
99957.2
99949
100003
100001
99999.4
99997.7
99995.1
99991.2
99985.9
99979.2
99971.6
99963.5
99955.5
99948.1
100003
100000
99998.9
99996.7
99993.5
99988.9
99983.1
99976.3
99968.8
99961.3
99954.1
99947.6
100002
99999.6
99997.9
99995.1
99991.2
99986.1
99979.9
99973.1
99966.1
99959.3
99953
99947.5
100002
99998.4
99996.5
99993
99988.5
99982.9
99976.6
99970
99963.5
99957.4
99952.1
99947.7
100001
99997.2
99994.9
99990.7
99985.7
99979.7
99973.3
99966.9
99961
99955.8
99951.5
99948
99999.7
99995.9
99993.1
99988.3
99982.8
99976.5
99970.1
99964.1
99958.7
99954.3
99950.9
99948.3
99998.6
99994.6
99991.4
99986.1
99980.1
99973.6
99967.2
99961.5
99956.7
99953
99950.4
99948.6
99997.9
99993.7
99989.9
99984.1
99977.8
99971.1
99964.8
99959.3
99955
99952
99949.9
99948.8
99996.5
99991.3
99987
99980.3
99973.5
99966.5
99960.2
99955.2
99951.6
99949.5
99948.7
99948.6
99944.6
99937.6
99931.3
99925.6
99920.4
99915.5
99910.8
99906.2
99901.6
99896.7
99892.3
99883
99942.6
99935.9
99929.9
99924.6
99919.7
99915.2
99910.9
99906.6
99902.4
99897.7
99894
99885.1
99941.7
99935.4
99929.9
99925.1
99920.6
99916.5
99912.4
99908.4
99904.5
99899.7
99896.9
99887.8
99941.5
99935.9
99931.1
99926.7
99922.6
99918.7
99914.9
99911
99907.2
99902.4
99900.2
99890.8
99942
99937.2
99932.9
99929.1
99925.3
99921.7
99918
99914.1
99910.3
99905.5
99903.5
99893.9
99942.8
99938.8
99935.2
99931.8
99928.4
99924.9
99921.3
99917.3
99913.6
99908.6
99906.6
99897.1
99943.9
99940.7
99937.7
99934.8
99931.7
99928.3
99924.7
99920.7
99916.8
99911.7
99909.6
99900.4
99945.1
99942.6
99940.2
99937.7
99934.9
99931.7
99928.2
99924.1
99920.1
99914.8
99912.4
99903.6
99946.3
99944.5
99942.7
99940.6
99938.1
99935.1
99931.6
99927.4
99923.2
99917.8
99915
99906.8
99947.3
99946.2
99944.9
99943.2
99941.1
99938.2
99934.8
99930.6
99926.4
99920.7
99917.6
99909.9
99948.2
99947.6
99946.8
99945.5
99943.5
99940.8
99937.4
99933.1
99928.6
99922.8
99919.2
99912
99949
99949.3
99949.3
99948.8
99947.5
99945.4
99942.4
99938.3
99933.9
99927.6
99923.6
99915.8
99876.6
99872.4
99871.5
99872.5
99875.1
99879.8
99886.9
99896.6
99909
99923.3
99937.5
99950.6
99874.1
99872.7
99871.2
99871.9
99874.4
99878.9
99886
99895.8
99908.1
99922.4
99936.8
99950.2
99873.4
99872.6
99871.1
99871.5
99873.7
99878.1
99885.1
99894.9
99907.3
99921.7
99936.3
99949.9
99872.7
99872.4
99871
99871.2
99873.1
99877.4
99884.3
99894
99906.5
99920.9
99935.8
99949.7
99872.3
99872.2
99870.9
99870.9
99872.6
99876.6
99883.4
99893.1
99905.7
99920.2
99935.3
99949.5
99872
99872
99870.8
99870.6
99872.1
99875.8
99882.4
99892.1
99904.7
99919.5
99934.8
99949.4
99871.8
99871.8
99870.7
99870.3
99871.5
99875
99881.4
99891.1
99903.8
99918.7
99934.4
99949.3
99871.8
99871.7
99870.6
99870.1
99870.9
99874.1
99880.3
99889.9
99902.7
99917.9
99933.9
99949.2
99871.8
99871.7
99870.6
99869.8
99870.3
99873.2
99879.1
99888.6
99901.6
99917.1
99933.5
99949.2
99871.8
99871.7
99870.7
99869.6
99869.7
99872.1
99877.8
99887.2
99900.3
99916.2
99933.1
99949.3
99871.9
99871.8
99870.7
99869.5
99869.1
99871.1
99876.5
99885.8
99899.2
99915.5
99932.8
99949.5
99871.8
99872.1
99871.2
99869.7
99868.7
99869.7
99874.2
99883.2
99896.7
99913.6
99932.1
99949.7
)
;

boundaryField
{
    rotor
    {
        type            zeroGradient;
    }
    stator
    {
        type            zeroGradient;
    }
    front
    {
        type            empty;
    }
    back
    {
        type            empty;
    }
}


// ************************************************************************* //
