/*--------------------------------*- C++ -*----------------------------------*\
| =========                 |                                                 |
| \\      /  F ield         | OpenFOAM: The Open Source CFD Toolbox           |
|  \\    /   O peration     | Version:  2212                                  |
|   \\  /    A nd           | Website:  www.openfoam.com                      |
|    \\/     M anipulation  |                                                 |
\*---------------------------------------------------------------------------*/
FoamFile
{
    version     2.0;
    format      ascii;
    arch        "LSB;label=32;scalar=64";
    class       surfaceScalarField;
    location    "0.06";
    object      phi;
}
// * * * * * * * * * * * * * * * * * * * * * * * * * * * * * * * * * * * * * //

dimensions      [1 0 -1 0 0 0 0];

oriented        oriented;

internalField   nonuniform List<scalar> 
5952
(
6.54914e-05
-6.54911e-05
0.000123415
-5.79229e-05
0.000154596
-3.11814e-05
0.000168032
-1.34353e-05
0.000166574
1.45874e-06
0.00013132
3.52541e-05
5.6206e-05
7.51144e-05
-8.12701e-05
0.000137476
-0.000293964
0.000212694
-0.000468133
0.00017417
-0.000597487
0.000129354
9.81081e-05
-0.000695595
5.21189e-05
-0.00011761
7.88167e-05
-8.46203e-05
7.24204e-05
-2.47846e-05
3.10148e-05
2.79706e-05
-5.39971e-05
8.64711e-05
-0.000187511
0.000168768
-0.000349898
0.000237502
-0.000474197
0.000261775
-0.000517468
0.000255966
-0.000555591
0.000212293
-0.000594659
0.000168422
0.000131125
-0.000627676
2.15057e-05
-0.000139115
1.4553e-05
-7.76671e-05
-2.71691e-05
1.69379e-05
-0.000112592
0.000113394
-0.000237428
0.000211307
-0.000349649
0.00028099
-0.000416493
0.000304347
-0.000452165
0.000297446
-0.000464543
0.000268345
-0.000476734
0.000224485
-0.000491028
0.000182716
0.000142307
-0.000502209
-3.4965e-05
-0.000104149
-8.01285e-05
-3.2503e-05
-0.000145157
8.19664e-05
-0.0002255
0.000193738
-0.000297722
0.000283529
-0.000340827
0.000324095
-0.000361494
0.000325015
-0.000369205
0.000305157
-0.000371087
0.000270228
-0.000373749
0.000227147
-0.000375984
0.000184952
0.000143343
-0.00037702
-5.95072e-05
-4.46416e-05
-0.000122148
3.01381e-05
-0.00018346
0.000143279
-0.000236012
0.00024629
-0.000267046
0.000314564
-0.000276459
0.000333508
-0.000275489
0.000324046
-0.000267637
0.000297305
-0.000258943
0.000261534
-0.000253108
0.000221313
-0.000248999
0.000180844
0.000140474
-0.000246129
-6.60001e-05
2.13591e-05
-0.000125427
8.95651e-05
-0.000172099
0.000189952
-0.00019745
0.000271642
-0.000200877
0.000317992
-0.00019165
0.000324281
-0.000176012
0.000308407
-0.000159495
0.000280789
-0.00014498
0.000247019
-0.000133758
0.000210091
-0.000125272
0.000172358
0.000134241
-0.000119039
-6.58991e-05
8.72588e-05
-0.000116871
0.000140538
-0.000144425
0.000217507
-0.000145389
0.000272607
-0.000127649
0.000300252
-0.000102569
0.000299201
-7.66126e-05
0.000282452
-5.28462e-05
0.000257023
-3.26938e-05
0.000226867
-1.65806e-05
0.000193979
-4.00746e-06
0.000159785
0.00012468
5.55395e-06
-6.74861e-05
0.000154746
-0.000104186
0.000177239
-0.000110439
0.000223759
-8.9762e-05
0.000251931
-5.46003e-05
0.000265091
-1.66154e-05
0.000261217
1.90674e-05
0.000246769
5.03468e-05
0.000225744
7.66424e-05
0.000200572
9.80606e-05
0.000172561
0.000115191
0.000142656
0.000111247
0.000128624
-5.69941e-05
0.00021174
-8.26701e-05
0.000202916
-6.76308e-05
0.000208721
-2.91194e-05
0.00021342
2.00706e-05
0.000215901
6.93051e-05
0.000211983
0.000114168
0.000201907
0.000153068
0.000186844
0.000185873
0.000167768
0.000213017
0.000145418
0.000235193
0.00012048
9.3389e-05
0.000253052
-6.04749e-05
0.000272216
-4.97091e-05
0.000192151
-4.74391e-06
0.000163756
5.2012e-05
0.000156664
0.000112844
0.00015507
0.000170495
0.000154333
0.000222006
0.000150397
0.000266544
0.000142307
0.000304368
0.000129944
0.000336125
0.000113661
0.000362575
9.40313e-05
7.15932e-05
0.000384371
7.63605e-06
0.000264581
5.66838e-05
0.000143104
0.000124937
9.55033e-05
0.000192729
8.88734e-05
0.000256174
9.16255e-05
0.000313341
9.71664e-05
0.000363771
9.99684e-05
0.000407655
9.84229e-05
0.000445538
9.20612e-05
0.000478049
8.11511e-05
0.000505819
6.62623e-05
4.80778e-05
0.000529335
0.000219198
4.53828e-05
0.000314304
4.7999e-05
0.000381227
2.85811e-05
0.000433955
3.61452e-05
0.000478218
4.73634e-05
0.000518149
5.7236e-05
0.000554854
6.3264e-05
0.000588488
6.47896e-05
0.000619072
6.14774e-05
0.000646622
5.36025e-05
0.000671253
4.16319e-05
0.000693014
2.63169e-05
-0.000763913
6.83183e-05
-0.000804609
4.06957e-05
-0.000821226
1.66174e-05
-0.000814467
-6.75824e-06
-0.000786374
-2.80932e-05
-0.000735848
-5.05258e-05
-0.000661317
-7.45311e-05
-0.000560962
-0.000100355
-0.000432626
-0.000128335
-0.000276581
-0.000156045
-0.00011198
-0.0001646
-0.00011198
-0.000650643
9.12853e-05
-0.000665159
5.52118e-05
-0.00066983
2.12891e-05
-0.000665412
-1.11763e-05
-0.000649729
-4.37757e-05
-0.000621145
-7.91101e-05
-0.000577761
-0.000117914
-0.000517169
-0.000160946
-0.000436392
-0.000209113
-0.000332667
-0.00025977
-0.000197537
-0.00029973
-0.000309516
-0.000511614
0.00010069
-0.000517497
6.10954e-05
-0.000518815
2.26076e-05
-0.000513837
-1.61546e-05
-0.000500698
-5.69144e-05
-0.000478527
-0.000101281
-0.000445864
-0.000150576
-0.000401322
-0.000205488
-0.00034311
-0.000267325
-0.000266175
-0.000336704
-0.000159859
-0.000406046
-0.000469375
-0.000378235
0.000101906
-0.0003785
6.13604e-05
-0.00037642
2.05279e-05
-0.000370823
-2.17509e-05
-0.000360833
-6.69043e-05
-0.000345668
-0.000116445
-0.000324097
-0.000172147
-0.000295149
-0.000234436
-0.000256526
-0.000305947
-0.000203713
-0.000389517
-0.000124722
-0.000485036
-0.000594097
-0.000244298
0.000100075
-0.00024251
5.95727e-05
-0.000240005
1.80237e-05
-0.000236114
-2.56413e-05
-0.000230303
-7.27149e-05
-0.000221987
-0.000124761
-0.000210605
-0.000183529
-0.000194904
-0.000250136
-0.000172812
-0.000328039
-0.000141544
-0.000420785
-8.96003e-05
-0.00053698
-0.000683697
-0.000114618
9.56551e-05
-0.000111356
5.63115e-05
-0.000108775
1.54431e-05
-0.000106513
-2.79031e-05
-0.000104315
-7.49124e-05
-0.000102053
-0.000127023
-9.9701e-05
-0.00018588
-9.64612e-05
-0.000253375
-9.15621e-05
-0.000332937
-8.25907e-05
-0.000429756
-6.02186e-05
-0.000559352
-0.000743915
1.25769e-05
8.86326e-05
1.75127e-05
5.13762e-05
2.06249e-05
1.23314e-05
2.20002e-05
-2.92779e-05
2.15427e-05
-7.44544e-05
1.89913e-05
-0.000124471
1.40027e-05
-0.000180891
6.44425e-06
-0.000245816
-3.58295e-06
-0.00032291
-1.47329e-05
-0.000418605
-2.21788e-05
-0.000551905
-0.000766094
0.000138846
7.84117e-05
0.000146192
4.40299e-05
0.000150767
7.75759e-06
0.000152423
-3.09338e-05
0.000150743
-7.27733e-05
0.000145031
-0.000118759
0.00013431
-0.000170169
0.000117411
-0.000228917
9.29834e-05
-0.000298482
6.03753e-05
-0.000385997
2.23549e-05
-0.000513885
-0.000743738
0.000267095
6.43693e-05
0.000277609
3.3516e-05
0.000284596
7.71516e-07
0.000287744
-3.40817e-05
0.000286373
-7.14016e-05
0.000279394
-0.00011178
0.000265159
-0.000155933
0.000241449
-0.000205207
0.000205096
-0.000262128
0.0001525
-0.0003334
8.13821e-05
-0.000442766
-0.000662356
0.000402015
4.67262e-05
0.000415763
1.97685e-05
0.000425547
-9.0121e-06
0.000430947
-3.94806e-05
0.000431095
-7.15493e-05
0.000424622
-0.000105306
0.000409311
-0.000140622
0.000382019
-0.000177915
0.000337606
-0.000217715
0.000269381
-0.000265174
0.000164801
-0.000338185
-0.000497555
0.000548982
2.70797e-05
0.00056492
3.83095e-06
0.000576984
-2.10762e-05
0.000584661
-4.71571e-05
0.000586952
-7.38392e-05
0.00058234
-0.000100694
0.000568321
-0.000126602
0.000541328
-0.000150922
0.000494597
-0.000170984
0.000419568
-0.000190144
0.000288329
-0.000206946
-0.000209226
0.000712011
8.08322e-06
0.000728185
-1.23421e-05
0.00074119
-3.40813e-05
0.000750385
-5.63512e-05
0.000754698
-7.81513e-05
0.000752597
-9.85927e-05
0.000741598
-0.000115603
0.000718484
-0.000127807
0.00067675
-0.000129249
0.000604189
-0.000117583
0.000452192
-5.49485e-05
0.000242967
6.07649e-05
-6.07646e-05
0.000116497
-5.57317e-05
0.000147985
-3.14877e-05
0.000160457
-1.24719e-05
0.000162093
-1.63546e-06
0.00013841
2.36833e-05
7.41996e-05
6.42109e-05
-3.55344e-05
0.000109734
-0.000235189
0.000199655
-0.000418551
0.000183362
-0.00055006
0.000131509
0.000102925
-0.000652986
5.0611e-05
-0.000111375
7.88655e-05
-8.39858e-05
7.6681e-05
-2.93029e-05
4.50573e-05
1.91522e-05
-2.52112e-05
6.86335e-05
-0.00014245
0.000140922
-0.000297312
0.000219073
-0.000438241
0.000250664
-0.000493215
0.00025463
-0.000527235
0.000217382
-0.000566936
0.000171211
0.000135629
-0.00059964
2.66309e-05
-0.000138006
2.71534e-05
-8.45079e-05
-4.32655e-06
2.17755e-06
-7.5307e-05
9.01331e-05
-0.000190926
0.000184253
-0.000312828
0.000262824
-0.000389837
0.000296083
-0.000431776
0.000292603
-0.000445637
0.000268491
-0.000455631
0.000227376
-0.000469479
0.00018506
0.000146153
-0.000480003
-2.54367e-05
-0.000112568
-6.07494e-05
-4.91947e-05
-0.000116963
5.83921e-05
-0.000193649
0.000166819
-0.00027161
0.000262214
-0.000322171
0.000313385
-0.000345968
0.000319881
-0.000354968
0.000301603
-0.000356614
0.000270137
-0.000358193
0.000228956
-0.00036035
0.000187217
0.000146772
-0.000360969
-5.1523e-05
-6.1045e-05
-0.000108893
8.17586e-06
-0.000168341
0.000117841
-0.000223349
0.000221828
-0.000259198
0.000298064
-0.000269955
0.000324143
-0.00026753
0.000317456
-0.000259436
0.000293509
-0.000249396
0.000260098
-0.000242067
0.000221627
-0.000237068
0.000182219
0.000143085
-0.000233381
-6.33083e-05
2.26381e-06
-0.00012139
6.62585e-05
-0.000169328
0.000165779
-0.000197104
0.000249605
-0.000201498
0.000302457
-0.000190808
0.000313454
-0.000173601
0.000300249
-0.000155451
0.00027536
-0.000139229
0.000243876
-0.000126463
0.000208861
-0.000116921
0.000172677
0.000136144
-0.00010998
-6.70393e-05
6.93036e-05
-0.000119746
0.000118966
-0.000149449
0.000195482
-0.000151656
0.000251811
-0.000133102
0.000283904
-0.000106114
0.000286466
-7.83112e-05
0.000272447
-5.26497e-05
0.000249699
-3.0735e-05
0.000221962
-1.31404e-05
0.000191267
4.61276e-07
0.000159076
0.000125988
1.06174e-05
-7.06389e-05
0.000139943
-0.000110621
0.000158948
-0.000119371
0.000204234
-9.97858e-05
0.000232226
-6.38595e-05
0.000247978
-2.42373e-05
0.000246845
1.32534e-05
0.000234957
4.63856e-05
0.000216568
7.43648e-05
0.000193983
9.71663e-05
0.000168466
0.000115257
0.000140985
0.00011204
0.000129207
-6.12654e-05
0.000201209
-9.09553e-05
0.000188639
-7.87974e-05
0.000192076
-4.19564e-05
0.000195386
7.32603e-06
0.000198696
5.76862e-05
0.000196485
0.000104078
0.000188565
0.000144627
0.00017602
0.000178962
0.000159649
0.000207356
0.000140073
0.000230401
0.00011794
9.37282e-05
0.000248714
-6.54126e-05
0.000266622
-5.84968e-05
0.000181724
-1.71139e-05
0.000150694
3.7366e-05
0.000140907
9.76092e-05
0.000138454
0.000155728
0.000138367
0.000208192
0.000136102
0.000253889
0.000130323
0.000292872
0.000120666
0.000325621
0.000107325
0.000352777
9.07853e-05
7.15633e-05
0.000374942
3.22102e-06
0.000263402
4.67433e-05
0.000138202
0.000111688
8.57502e-05
0.000177285
7.53106e-05
0.000239721
7.60179e-05
0.000296554
8.15347e-05
0.000347075
8.55812e-05
0.000391356
8.60422e-05
0.000429823
8.22003e-05
0.000462958
7.41898e-05
0.00049122
6.25236e-05
4.77775e-05
0.000515006
0.000211629
5.1774e-05
0.000302205
4.76273e-05
0.000367378
2.05775e-05
0.000418565
2.41243e-05
0.000461182
3.34011e-05
0.000499743
4.29745e-05
0.000535535
4.97904e-05
0.000568763
5.28139e-05
0.000599377
5.15869e-05
0.000627246
4.63216e-05
0.000652246
3.75245e-05
0.000674281
2.57431e-05
-0.000724068
7.10825e-05
-0.00076836
4.42921e-05
-0.000787844
1.94839e-05
-0.000784208
-3.63586e-06
-0.000758943
-2.52645e-05
-0.000711746
-4.71971e-05
-0.000640372
-7.13732e-05
-0.000543526
-9.6846e-05
-0.000418614
-0.000124912
-0.000266301
-0.000152313
-0.00010605
-0.000160251
-0.00010605
-0.000623652
9.50956e-05
-0.000638809
5.94486e-05
-0.000644731
2.5407e-05
-0.000641516
-6.85075e-06
-0.000627804
-3.89767e-05
-0.000601193
-7.3808e-05
-0.000560345
-0.00011222
-0.000502349
-0.000154842
-0.000424525
-0.000202736
-0.000323971
-0.000252866
-0.0001923
-0.000291922
-0.00029835
-0.000489903
0.000104996
-0.000496274
6.58197e-05
-0.000498551
2.76847e-05
-0.000494917
-1.04843e-05
-0.000483355
-5.05389e-05
-0.000463023
-9.41393e-05
-0.000432427
-0.000142816
-0.000390357
-0.000196912
-0.000334974
-0.000258118
-0.000260923
-0.000326917
-0.000157654
-0.00039519
-0.000456003
-0.000361787
0.000105815
-0.00036199
6.60228e-05
-0.000360406
2.61005e-05
-0.000355729
-1.51609e-05
-0.000347025
-5.9242e-05
-0.000333514
-0.00010765
-0.000313851
-0.000162479
-0.00028698
-0.000223783
-0.000250536
-0.000294562
-0.000199545
-0.000377908
-0.000122243
-0.000472491
-0.000578246
-0.000231263
0.000103698
-0.000229633
6.43926e-05
-0.000227698
2.41657e-05
-0.000224742
-1.8116e-05
-0.000220179
-6.38046e-05
-0.000213335
-0.000114494
-0.000203669
-0.000172145
-0.000189735
-0.000237716
-0.000169373
-0.000314924
-0.000140026
-0.000407255
-8.96158e-05
-0.000522901
-0.000667862
-0.000105364
9.90828e-05
-0.000102345
6.13743e-05
-0.000100386
2.2207e-05
-9.90673e-05
-1.94343e-05
-9.80714e-05
-6.48001e-05
-9.7164e-05
-0.000115401
-9.63059e-05
-0.000173002
-9.44973e-05
-0.000239525
-9.08784e-05
-0.000318542
-8.29343e-05
-0.000415199
-6.0921e-05
-0.000544914
-0.000728782
1.77441e-05
9.19566e-05
2.23567e-05
5.67622e-05
2.4788e-05
1.97761e-05
2.51952e-05
-1.9841e-05
2.3558e-05
-6.31624e-05
1.97062e-05
-0.000111548
1.33888e-05
-0.000166685
4.64056e-06
-0.000230776
-6.26437e-06
-0.000307637
-1.78097e-05
-0.000403653
-2.49706e-05
-0.000537753
-0.000753753
0.00013947
8.16934e-05
0.000146441
4.97917e-05
0.000150297
1.59204e-05
0.000150979
-2.05223e-05
0.00014816
-6.03429e-05
0.000141248
-0.000104636
0.00012939
-0.000154825
0.000111599
-0.000212985
8.67794e-05
-0.000282817
5.46005e-05
-0.000371473
1.80696e-05
-0.000501222
-0.000735683
0.000262764
6.76435e-05
0.000272878
3.96784e-05
0.000279136
9.66327e-06
0.000281332
-2.2718e-05
0.000278897
-5.79079e-05
0.00027086
-9.65982e-05
0.000255709
-0.000139674
0.00023141
-0.000188685
0.000195071
-0.000246477
0.00014341
-0.000319812
7.49318e-05
-0.000432743
-0.000660751
0.000392554
5.00319e-05
0.000405883
2.635e-05
0.000414944
6.03221e-07
0.000419439
-2.72129e-05
0.000418633
-5.71013e-05
0.000411295
-8.92599e-05
0.000395373
-0.000123752
0.000367911
-0.000161223
0.000324015
-0.00020258
0.00025724
-0.000253035
0.000156315
-0.000331819
-0.000504435
0.000534569
3.047e-05
0.000550059
1.086e-05
0.00056141
-1.07472e-05
0.000568253
-3.40547e-05
0.000569733
-5.85809e-05
0.00056451
-8.40367e-05
0.0005503
-0.000109541
0.000523717
-0.000134639
0.000478208
-0.000157072
0.000405334
-0.000180161
0.000278404
-0.000204888
-0.000226031
0.000693209
1.15423e-05
0.000708931
-4.86146e-06
0.00072123
-2.30457e-05
0.00072967
-4.24934e-05
0.000733379
-6.22897e-05
0.000731074
-8.17312e-05
0.000720599
-9.90662e-05
0.000698911
-0.00011295
0.00065964
-0.000117801
0.00059026
-0.00011078
0.000443699
-5.83269e-05
0.000217669
6.5491e-05
-6.54907e-05
0.000123414
-5.79228e-05
0.000154596
-3.11814e-05
0.000168032
-1.34352e-05
0.000166574
1.45833e-06
0.000131321
3.52527e-05
5.62081e-05
7.51135e-05
-8.12657e-05
0.000137474
-0.00029396
0.000212694
-0.000468131
0.000174171
-0.000597485
0.000129355
9.81089e-05
-0.000695594
5.2119e-05
-0.000117609
7.88171e-05
-8.46205e-05
7.24214e-05
-2.47853e-05
3.1017e-05
2.79696e-05
-5.39935e-05
8.64692e-05
-0.000187506
0.000168766
-0.000349894
0.000237502
-0.000474195
0.000261775
-0.000517467
0.000255967
-0.00055559
0.000212295
-0.000594659
0.000168423
0.000131126
-0.000627676
2.15067e-05
-0.000139115
1.45551e-05
-7.76685e-05
-2.71655e-05
1.69358e-05
-0.000112587
0.000113391
-0.000237422
0.000211305
-0.000349646
0.00028099
-0.000416492
0.000304348
-0.000452164
0.000297448
-0.000464543
0.000268346
-0.000476734
0.000224486
-0.000491028
0.000182717
0.000142308
-0.000502209
-3.49632e-05
-0.000104152
-8.01251e-05
-3.25061e-05
-0.000145152
8.19632e-05
-0.000225496
0.000193736
-0.00029772
0.000283529
-0.000340826
0.000324096
-0.000361494
0.000325017
-0.000369205
0.000305159
-0.000371088
0.000270229
-0.00037375
0.000227149
-0.000375985
0.000184953
0.000143344
-0.00037702
-5.95058e-05
-4.46455e-05
-0.000122146
3.01342e-05
-0.000183458
0.000143276
-0.000236011
0.000246289
-0.000267046
0.000314565
-0.000276459
0.00033351
-0.00027549
0.000324047
-0.000267637
0.000297307
-0.000258943
0.000261536
-0.000253108
0.000221314
-0.000248999
0.000180845
0.000140475
-0.000246129
-6.59996e-05
2.13546e-05
-0.000125426
8.95611e-05
-0.000172099
0.00018995
-0.000197451
0.000271642
-0.000200879
0.000317993
-0.000191651
0.000324283
-0.000176013
0.000308409
-0.000159496
0.00028079
-0.000144981
0.000247021
-0.000133759
0.000210092
-0.000125273
0.000172359
0.000134241
-0.000119039
-6.58993e-05
8.72546e-05
-0.000116872
0.000140535
-0.000144427
0.000217505
-0.000145391
0.000272607
-0.000127651
0.000300253
-0.00010257
0.000299203
-7.66136e-05
0.000282453
-5.28469e-05
0.000257024
-3.26944e-05
0.000226869
-1.6581e-05
0.00019398
-4.00779e-06
0.000159786
0.00012468
5.55369e-06
-6.74869e-05
0.000154742
-0.000104188
0.000177236
-0.000110441
0.000223758
-8.9764e-05
0.00025193
-5.46018e-05
0.000265092
-1.66165e-05
0.000261218
1.90665e-05
0.000246771
5.03462e-05
0.000225745
7.6642e-05
0.000200573
9.80603e-05
0.000172562
0.00011519
0.000142657
0.000111247
0.000128624
-5.69953e-05
0.000211738
-8.26721e-05
0.000202914
-6.76331e-05
0.00020872
-2.91214e-05
0.000213419
2.00691e-05
0.000215902
6.9304e-05
0.000211984
0.000114167
0.000201908
0.000153067
0.000186845
0.000185873
0.000167768
0.000213017
0.000145418
0.000235193
0.000120481
9.33896e-05
0.000253051
-6.04762e-05
0.000272215
-4.97109e-05
0.000192149
-4.74593e-06
0.000163755
5.201e-05
0.000156664
0.000112843
0.00015507
0.000170494
0.000154333
0.000222005
0.000150398
0.000266543
0.000142307
0.000304368
0.000129945
0.000336125
0.000113662
0.000362574
9.40319e-05
7.15938e-05
0.000384371
7.63527e-06
0.00026458
5.66824e-05
0.000143103
0.000124936
9.55026e-05
0.000192728
8.8873e-05
0.000256173
9.16254e-05
0.00031334
9.71665e-05
0.00036377
9.99687e-05
0.000407654
9.84233e-05
0.000445538
9.20617e-05
0.000478048
8.11516e-05
0.000505818
6.62627e-05
4.80783e-05
0.000529334
0.000219198
4.53831e-05
0.000314303
4.79987e-05
0.000381226
2.85808e-05
0.000433954
3.61449e-05
0.000478217
4.73632e-05
0.000518148
5.7236e-05
0.000554853
6.32641e-05
0.000588487
6.47899e-05
0.000619072
6.14777e-05
0.000646621
5.36029e-05
0.000671252
4.16322e-05
0.000693014
2.63172e-05
-0.000763912
6.83188e-05
-0.000804608
4.06961e-05
-0.000821226
1.66177e-05
-0.000814467
-6.75806e-06
-0.000786374
-2.8093e-05
-0.000735848
-5.05258e-05
-0.000661317
-7.45311e-05
-0.000560962
-0.000100355
-0.000432626
-0.000128335
-0.000276581
-0.000156045
-0.00011198
-0.000164601
-0.00011198
-0.000650643
9.1286e-05
-0.000665159
5.52124e-05
-0.00066983
2.12894e-05
-0.000665412
-1.11761e-05
-0.000649729
-4.37755e-05
-0.000621145
-7.911e-05
-0.000577761
-0.000117914
-0.00051717
-0.000160946
-0.000436392
-0.000209113
-0.000332667
-0.00025977
-0.000197537
-0.00029973
-0.000309516
-0.000511614
0.000100691
-0.000517498
6.1096e-05
-0.000518816
2.2608e-05
-0.000513837
-1.61543e-05
-0.000500698
-5.69142e-05
-0.000478527
-0.000101281
-0.000445865
-0.000150576
-0.000401323
-0.000205488
-0.00034311
-0.000267325
-0.000266175
-0.000336704
-0.000159859
-0.000406047
-0.000469375
-0.000378236
0.000101907
-0.0003785
6.13609e-05
-0.00037642
2.05283e-05
-0.000370823
-2.17506e-05
-0.000360833
-6.69042e-05
-0.000345669
-0.000116445
-0.000324097
-0.000172147
-0.000295149
-0.000234436
-0.000256526
-0.000305947
-0.000203713
-0.000389517
-0.000124723
-0.000485036
-0.000594097
-0.000244298
0.000100076
-0.00024251
5.95732e-05
-0.000240005
1.80241e-05
-0.000236114
-2.56411e-05
-0.000230303
-7.27148e-05
-0.000221987
-0.000124761
-0.000210605
-0.000183529
-0.000194904
-0.000250136
-0.000172812
-0.000328039
-0.000141545
-0.000420785
-8.96004e-05
-0.00053698
-0.000683697
-0.000114618
9.56557e-05
-0.000111357
5.63119e-05
-0.000108776
1.54434e-05
-0.000106513
-2.79029e-05
-0.000104315
-7.49123e-05
-0.000102053
-0.000127023
-9.97012e-05
-0.00018588
-9.64614e-05
-0.000253375
-9.15623e-05
-0.000332937
-8.25908e-05
-0.000429756
-6.02186e-05
-0.000559352
-0.000743916
1.25767e-05
8.86331e-05
1.75125e-05
5.13767e-05
2.06247e-05
1.23317e-05
2.2e-05
-2.92777e-05
2.15425e-05
-7.44543e-05
1.89911e-05
-0.000124471
1.40025e-05
-0.000180891
6.44408e-06
-0.000245817
-3.5831e-06
-0.00032291
-1.4733e-05
-0.000418606
-2.21789e-05
-0.000551906
-0.000766094
0.000138845
7.84122e-05
0.000146192
4.40303e-05
0.000150767
7.75791e-06
0.000152423
-3.09336e-05
0.000150742
-7.27732e-05
0.000145031
-0.000118759
0.000134309
-0.000170169
0.000117411
-0.000228917
9.29833e-05
-0.000298482
6.03752e-05
-0.000385997
2.23548e-05
-0.000513885
-0.000743739
0.000267094
6.43698e-05
0.000277609
3.35164e-05
0.000284595
7.71822e-07
0.000287744
-3.40814e-05
0.000286373
-7.14015e-05
0.000279394
-0.00011178
0.000265158
-0.000155934
0.000241449
-0.000205207
0.000205096
-0.000262129
0.0001525
-0.0003334
8.1382e-05
-0.000442767
-0.000662356
0.000402015
4.67266e-05
0.000415763
1.97689e-05
0.000425547
-9.01181e-06
0.000430946
-3.94805e-05
0.000431095
-7.15492e-05
0.000424622
-0.000105306
0.000409311
-0.000140622
0.000382019
-0.000177915
0.000337606
-0.000217715
0.000269381
-0.000265174
0.000164801
-0.000338186
-0.000497555
0.000548981
2.70801e-05
0.00056492
3.83127e-06
0.000576984
-2.1076e-05
0.000584661
-4.71569e-05
0.000586952
-7.38391e-05
0.00058234
-0.000100694
0.000568321
-0.000126602
0.000541328
-0.000150922
0.000494597
-0.000170984
0.000419568
-0.000190144
0.000288329
-0.000206946
-0.000209226
0.000712011
8.08353e-06
0.000728185
-1.23419e-05
0.00074119
-3.40811e-05
0.000750385
-5.63511e-05
0.000754698
-7.81512e-05
0.000752597
-9.85927e-05
0.000741598
-0.000115603
0.000718484
-0.000127807
0.00067675
-0.000129249
0.000604189
-0.000117583
0.000452192
-5.4949e-05
0.000242967
6.07649e-05
-6.07645e-05
0.000116497
-5.57317e-05
0.000147985
-3.14877e-05
0.000160457
-1.24719e-05
0.000162093
-1.63547e-06
0.00013841
2.36832e-05
7.41997e-05
6.42109e-05
-3.55343e-05
0.000109734
-0.000235189
0.000199655
-0.000418551
0.000183362
-0.000550061
0.000131509
0.000102925
-0.000652986
5.0611e-05
-0.000111375
7.88655e-05
-8.39858e-05
7.6681e-05
-2.93029e-05
4.50574e-05
1.91521e-05
-2.52111e-05
6.86335e-05
-0.00014245
0.000140922
-0.000297312
0.000219073
-0.000438241
0.000250664
-0.000493215
0.00025463
-0.000527235
0.000217382
-0.000566936
0.000171211
0.000135629
-0.00059964
2.66309e-05
-0.000138006
2.71535e-05
-8.4508e-05
-4.32643e-06
2.17749e-06
-7.53068e-05
9.0133e-05
-0.000190926
0.000184253
-0.000312828
0.000262824
-0.000389837
0.000296083
-0.000431776
0.000292603
-0.000445637
0.000268491
-0.000455631
0.000227376
-0.000469479
0.00018506
0.000146153
-0.000480003
-2.54367e-05
-0.000112569
-6.07494e-05
-4.91948e-05
-0.000116963
5.8392e-05
-0.000193649
0.000166819
-0.00027161
0.000262214
-0.000322171
0.000313385
-0.000345968
0.000319881
-0.000354968
0.000301603
-0.000356614
0.000270137
-0.000358193
0.000228956
-0.00036035
0.000187217
0.000146772
-0.000360969
-5.15229e-05
-6.10451e-05
-0.000108893
8.17575e-06
-0.000168341
0.00011784
-0.000223349
0.000221828
-0.000259198
0.000298063
-0.000269955
0.000324143
-0.00026753
0.000317456
-0.000259436
0.000293509
-0.000249396
0.000260098
-0.000242067
0.000221627
-0.000237068
0.000182219
0.000143085
-0.000233381
-6.33083e-05
2.26371e-06
-0.00012139
6.62584e-05
-0.000169328
0.000165779
-0.000197104
0.000249604
-0.000201498
0.000302457
-0.000190808
0.000313454
-0.000173601
0.000300249
-0.000155451
0.00027536
-0.000139229
0.000243877
-0.000126463
0.000208861
-0.000116921
0.000172677
0.000136144
-0.00010998
-6.70393e-05
6.93036e-05
-0.000119746
0.000118966
-0.000149449
0.000195482
-0.000151656
0.000251811
-0.000133102
0.000283904
-0.000106114
0.000286466
-7.83112e-05
0.000272447
-5.26496e-05
0.000249699
-3.0735e-05
0.000221962
-1.31403e-05
0.000191267
4.61356e-07
0.000159076
0.000125988
1.06175e-05
-7.0639e-05
0.000139943
-0.000110621
0.000158948
-0.000119371
0.000204234
-9.97858e-05
0.000232226
-6.38595e-05
0.000247978
-2.42373e-05
0.000246845
1.32535e-05
0.000234957
4.63856e-05
0.000216568
7.43649e-05
0.000193984
9.71663e-05
0.000168466
0.000115258
0.000140985
0.00011204
0.000129207
-6.12654e-05
0.000201209
-9.09553e-05
0.000188639
-7.87973e-05
0.000192076
-4.19564e-05
0.000195386
7.32606e-06
0.000198696
5.76862e-05
0.000196485
0.000104078
0.000188565
0.000144627
0.00017602
0.000178962
0.000159649
0.000207356
0.000140073
0.000230402
0.00011794
9.37283e-05
0.000248714
-6.54125e-05
0.000266622
-5.84967e-05
0.000181724
-1.71139e-05
0.000150694
3.73661e-05
0.000140906
9.76092e-05
0.000138454
0.000155728
0.000138367
0.000208192
0.000136102
0.000253889
0.000130323
0.000292872
0.000120666
0.000325621
0.000107325
0.000352777
9.07854e-05
7.15633e-05
0.000374942
3.22108e-06
0.000263402
4.67433e-05
0.000138202
0.000111688
8.575e-05
0.000177285
7.53105e-05
0.000239721
7.60178e-05
0.000296554
8.15346e-05
0.000347075
8.55812e-05
0.000391356
8.60422e-05
0.000429823
8.22004e-05
0.000462958
7.41899e-05
0.00049122
6.25237e-05
4.77776e-05
0.000515006
0.000211629
5.17738e-05
0.000302205
4.76271e-05
0.000367378
2.05774e-05
0.000418565
2.41242e-05
0.000461182
3.34011e-05
0.000499743
4.29745e-05
0.000535535
4.97904e-05
0.000568763
5.28139e-05
0.000599377
5.1587e-05
0.000627246
4.63217e-05
0.000652246
3.75245e-05
0.000674281
2.57432e-05
-0.000724068
7.10825e-05
-0.00076836
4.42922e-05
-0.000787844
1.9484e-05
-0.000784208
-3.63585e-06
-0.000758943
-2.52644e-05
-0.000711746
-4.71971e-05
-0.000640372
-7.13732e-05
-0.000543526
-9.68461e-05
-0.000418614
-0.000124912
-0.000266301
-0.000152313
-0.00010605
-0.000160251
-0.00010605
-0.000623652
9.50956e-05
-0.000638809
5.94486e-05
-0.000644731
2.54071e-05
-0.000641516
-6.85072e-06
-0.000627804
-3.89767e-05
-0.000601193
-7.38079e-05
-0.000560345
-0.00011222
-0.000502349
-0.000154842
-0.000424525
-0.000202736
-0.000323971
-0.000252866
-0.0001923
-0.000291922
-0.00029835
-0.000489903
0.000104996
-0.000496274
6.58197e-05
-0.000498551
2.76847e-05
-0.000494918
-1.04843e-05
-0.000483355
-5.05389e-05
-0.000463023
-9.41393e-05
-0.000432428
-0.000142816
-0.000390357
-0.000196912
-0.000334974
-0.000258118
-0.000260923
-0.000326918
-0.000157654
-0.00039519
-0.000456003
-0.000361787
0.000105815
-0.00036199
6.60228e-05
-0.000360406
2.61005e-05
-0.000355729
-1.51609e-05
-0.000347025
-5.92419e-05
-0.000333514
-0.00010765
-0.000313851
-0.000162479
-0.00028698
-0.000223783
-0.000250536
-0.000294562
-0.000199545
-0.000377908
-0.000122243
-0.000472492
-0.000578246
-0.000231263
0.000103698
-0.000229633
6.43927e-05
-0.000227698
2.41658e-05
-0.000224742
-1.81159e-05
-0.000220179
-6.38045e-05
-0.000213335
-0.000114494
-0.000203669
-0.000172145
-0.000189735
-0.000237716
-0.000169373
-0.000314924
-0.000140026
-0.000407255
-8.96158e-05
-0.000522901
-0.000667862
-0.000105364
9.90829e-05
-0.000102345
6.13744e-05
-0.000100386
2.22071e-05
-9.90673e-05
-1.94342e-05
-9.80713e-05
-6.48e-05
-9.71639e-05
-0.000115401
-9.63059e-05
-0.000173002
-9.44973e-05
-0.000239525
-9.08784e-05
-0.000318542
-8.29344e-05
-0.000415199
-6.0921e-05
-0.000544914
-0.000728783
1.77441e-05
9.19566e-05
2.23567e-05
5.67622e-05
2.47881e-05
1.97762e-05
2.51952e-05
-1.98409e-05
2.3558e-05
-6.31624e-05
1.97062e-05
-0.000111548
1.33888e-05
-0.000166685
4.64056e-06
-0.000230776
-6.26438e-06
-0.000307637
-1.78098e-05
-0.000403653
-2.49707e-05
-0.000537753
-0.000753753
0.00013947
8.16935e-05
0.000146441
4.97918e-05
0.000150297
1.59205e-05
0.000150979
-2.05222e-05
0.00014816
-6.03429e-05
0.000141248
-0.000104636
0.00012939
-0.000154825
0.000111599
-0.000212985
8.67794e-05
-0.000282817
5.46004e-05
-0.000371474
1.80696e-05
-0.000501222
-0.000735683
0.000262764
6.76436e-05
0.000272878
3.96785e-05
0.000279136
9.66336e-06
0.000281332
-2.27179e-05
0.000278897
-5.79078e-05
0.00027086
-9.65982e-05
0.000255709
-0.000139674
0.00023141
-0.000188685
0.000195071
-0.000246477
0.00014341
-0.000319812
7.49318e-05
-0.000432744
-0.000660751
0.000392554
5.0032e-05
0.000405883
2.63501e-05
0.000414944
6.03321e-07
0.000419439
-2.72128e-05
0.000418633
-5.71012e-05
0.000411295
-8.92598e-05
0.000395373
-0.000123752
0.000367911
-0.000161223
0.000324015
-0.00020258
0.00025724
-0.000253035
0.000156315
-0.000331819
-0.000504435
0.000534569
3.04701e-05
0.000550059
1.08601e-05
0.00056141
-1.07471e-05
0.000568253
-3.40546e-05
0.000569733
-5.85808e-05
0.00056451
-8.40366e-05
0.0005503
-0.000109541
0.000523717
-0.000134639
0.000478208
-0.000157072
0.000405334
-0.000180161
0.000278404
-0.000204888
-0.000226031
0.000693209
1.15424e-05
0.000708931
-4.86138e-06
0.00072123
-2.30456e-05
0.00072967
-4.24933e-05
0.000733379
-6.22896e-05
0.000731074
-8.17311e-05
0.0007206
-9.90662e-05
0.000698911
-0.00011295
0.00065964
-0.000117801
0.00059026
-0.00011078
0.000443699
-5.8327e-05
0.000217668
0.000817996
9.52392e-05
-0.000867852
0.000798684
6.7312e-05
0.000774724
5.25409e-05
0.000764393
4.64776e-05
0.000765291
4.64652e-05
0.000774156
4.83716e-05
0.000788056
4.93644e-05
0.000804783
4.80639e-05
0.000822764
4.34967e-05
0.000840939
3.54278e-05
0.000858742
2.3829e-05
9.38891e-06
0.000875671
0.00108709
9.14927e-05
-0.00108334
0.00107602
7.83823e-05
0.00105985
6.87085e-05
0.00104504
6.12887e-05
0.00103499
5.65182e-05
0.00103036
5.30046e-05
0.00103054
4.91803e-05
0.00103456
4.40431e-05
0.00104144
3.66172e-05
0.00105035
2.65207e-05
0.00106074
1.34382e-05
-1.78288e-06
0.00107192
0.00128386
8.36999e-05
-0.00127607
0.00128377
7.84726e-05
0.00127943
7.30532e-05
0.00127304
6.76784e-05
0.00126667
6.28896e-05
0.00126161
5.80638e-05
0.0012585
5.22956e-05
0.00125755
4.49866e-05
0.00125878
3.53917e-05
0.00126209
2.32067e-05
0.00126742
8.11088e-06
-8.67257e-06
0.00127431
0.0014728
-0.00146842
7.9322e-05
0.00147574
7.55317e-05
0.00147667
7.21264e-05
0.00147585
6.84905e-05
0.00147396
6.47832e-05
0.00147171
6.03179e-05
0.00146973
5.42718e-05
0.00146857
4.61473e-05
0.0014686
3.53662e-05
0.00147012
2.16817e-05
0.00147336
4.87749e-06
0.00147862