/*--------------------------------*- C++ -*----------------------------------*\
| =========                 |                                                 |
| \\      /  F ield         | OpenFOAM: The Open Source CFD Toolbox           |
|  \\    /   O peration     | Version:  2212                                  |
|   \\  /    A nd           | Website:  www.openfoam.com                      |
|    \\/     M anipulation  |                                                 |
\*---------------------------------------------------------------------------*/
FoamFile
{
    version     2.0;
    format      ascii;
    arch        "LSB;label=32;scalar=64";
    class       surfaceScalarField;
    location    "0.06";
    object      phi;
}
// * * * * * * * * * * * * * * * * * * * * * * * * * * * * * * * * * * * * * //

dimensions      [1 0 -1 0 0 0 0];

oriented        oriented;

internalField   nonuniform List<scalar> 
5952
(
5.05833e-05
-5.05786e-05
9.98273e-05
-4.92394e-05
0.000132591
-3.27593e-05
0.00014744
-1.48441e-05
0.000153046
-5.60085e-06
0.000148782
4.26836e-06
0.000114966
3.38209e-05
4.20501e-05
7.29202e-05
-9.72971e-05
0.000139352
-0.00029154
0.000194248
-0.000439412
0.000147876
0.000109566
-0.000548974
4.4811e-05
-9.53845e-05
7.5856e-05
-8.02792e-05
8.13109e-05
-3.8209e-05
6.59441e-05
5.2782e-07
2.51553e-05
3.51932e-05
-5.20492e-05
8.1478e-05
-0.000175553
0.00015733
-0.000325756
0.000223128
-0.000429887
0.000243488
-0.000466347
0.000230713
-0.000503211
0.000184744
0.000145209
-0.000538849
3.31396e-05
-0.000128518
4.75605e-05
-9.46944e-05
3.64383e-05
-2.7081e-05
-3.37492e-06
4.03468e-05
-8.45244e-05
0.000116348
-0.000204308
0.000201267
-0.000316134
0.000269162
-0.000381747
0.000288747
-0.000412833
0.000274579
-0.000422602
0.000240488
-0.000433425
0.000195572
0.000155337
-0.000443547
-3.16498e-06
-0.000125347
-1.73111e-05
-8.05421e-05
-5.02314e-05
5.84563e-06
-0.000108405
9.85261e-05
-0.000189819
0.000197769
-0.000267226
0.000278681
-0.000313537
0.000315478
-0.000332224
0.00030744
-0.00033806
0.000280421
-0.000339712
0.000242146
-0.000342547
0.000198413
0.000156949
-0.000344153
-2.87666e-05
-9.65737e-05
-6.70256e-05
-4.22763e-05
-0.000114845
5.36715e-05
-0.000171098
0.000154786
-0.000224516
0.000251194
-0.000255544
0.000309715
-0.000261677
0.000321618
-0.000257242
0.000303011
-0.00024893
0.000272117
-0.000241191
0.000234414
-0.000236323
0.000193552
0.000153158
-0.000232526
-5.17654e-05
-4.4801e-05
-0.000101365
7.3304e-06
-0.000148662
0.000100976
-0.000185276
0.000191407
-0.000203473
0.000269399
-0.000199654
0.000305903
-0.000184921
0.000306891
-0.000167981
0.000286078
-0.000152376
0.000256519
-0.000139726
0.000221771
-0.000130479
0.000184312
0.000146213
-0.000123527
-6.6063e-05
2.12698e-05
-0.000120933
6.22079e-05
-0.000155943
0.000135995
-0.00016634
0.000201811
-0.00015368
0.000256747
-0.000128139
0.00028037
-0.000100317
0.000279077
-7.5652e-05
0.000261421
-5.50149e-05
0.000235889
-3.86883e-05
0.000205452
-2.63572e-05
0.000171989
0.000136922
-1.70578e-05
-7.54997e-05
9.67779e-05
-0.000123137
0.000109853
-0.000139466
0.000152332
-0.000126346
0.000188699
-9.31036e-05
0.000223513
-5.39611e-05
0.000241236
-1.70003e-05
0.000242125
1.41828e-05
0.000230246
3.94373e-05
0.000210643
5.92872e-05
0.000185611
7.4564e-05
0.00015672
0.000125176
8.63176e-05
-7.08249e-05
0.000167612
-0.000107383
0.000146421
-0.000103409
0.000148367
-7.38804e-05
0.000159179
-2.88016e-05
0.000178443
1.93023e-05
0.00019314
6.33851e-05
0.000198051
0.000100402
0.000193238
0.000130285
0.000180769
0.000153921
0.000161984
0.000172495
0.000138155
0.000110461
0.000187219
-7.06453e-05
0.000238267
-7.17777e-05
0.000147562
-4.20427e-05
0.000118641
1.26111e-06
0.000115885
5.3005e-05
0.000126708
0.000104913
0.000141242
0.000151812
0.000151162
0.000191482
0.000153577
0.000223939
0.000148321
0.000250151
0.000135781
0.000271396
0.000116919
9.29018e-05
0.000288965
-4.53e-08
0.000238322
3.13283e-05
0.000116199
8.05719e-05
6.94076e-05
0.000130551
6.59157e-05
0.000179612
7.7657e-05
0.000225581
9.52828e-05
0.000266681
0.000110071
0.000302033
0.000118235
0.000331816
0.000118548
0.000356833
0.000110775
0.000378157
9.56047e-05
7.40487e-05
0.00039702
0.000193732
4.46009e-05
0.000267223
4.2718e-05
0.000313276
2.33653e-05
0.000345647
3.35549e-05
0.000372101
5.12135e-05
0.000396966
7.04279e-05
0.000420675
8.63728e-05
0.000442765
9.61548e-05
0.000462959
9.83648e-05
0.000481544
9.21996e-05
0.000499057
7.81023e-05
0.00051663
5.64861e-05
-0.000628597
7.96206e-05
-0.000677848
4.92698e-05
-0.000703231
2.53807e-05
-0.000703946
7.18764e-07
-0.000683839
-2.01025e-05
-0.000641683
-4.21516e-05
-0.000576465
-6.52136e-05
-0.000486549
-8.99113e-05
-0.000370503
-0.000116042
-0.000229384
-0.000141114
-8.5685e-05
-0.000143695
-8.56806e-05
-0.000564286
0.000105062
-0.000582078
6.7068e-05
-0.000589516
3.28234e-05
-0.000588404
-3.8818e-07
-0.000576618
-3.18841e-05
-0.000552898
-6.58666e-05
-0.000515524
-0.000102582
-0.000462381
-0.00014305
-0.00039069
-0.000187728
-0.000298487
-0.000233312
-0.000175565
-0.000266611
-0.000261241
-0.000452871
0.000114391
-0.000460178
7.4381e-05
-0.000463143
3.57933e-05
-0.00046072
-2.80535e-06
-0.000450217
-4.2382e-05
-0.000431523
-8.45552e-05
-0.000403449
-0.00013065
-0.000364981
-0.000181513
-0.000314438
-0.000238265
-0.000246813
-0.000300932
-0.000151266
-0.000362153
-0.000412502
-0.000345091
0.000115335
-0.000344862
7.41575e-05
-0.000342538
3.34762e-05
-0.000337425
-7.91272e-06
-0.000328544
-5.12573e-05
-0.000315175
-9.79183e-05
-0.000296167
-0.000149651
-0.000270414
-0.00020726
-0.000236014
-0.000272658
-0.000187403
-0.000349538
-0.000114021
-0.000435528
-0.000526517
-0.000229685
0.000112501
-0.000227276
7.1755e-05
-0.000224444
3.06515e-05
-0.000220552
-1.17982e-05
-0.000215034
-5.67685e-05
-0.000207352
-0.000105594
-0.00019677
-0.000160227
-0.000182356
-0.000221668
-0.000162098
-0.00029291
-0.000133893
-0.000377736
-8.65013e-05
-0.000482913
-0.000613012
-0.000118441
0.000107422
-0.000114673
6.79946e-05
-0.000111608
2.75935e-05
-0.000108823
-1.45765e-05
-0.000106021
-5.95629e-05
-0.000102951
-0.000108657
-9.96905e-05
-0.00016348
-9.55784e-05
-0.000225773
-8.97707e-05
-0.00029871
-8.01932e-05
-0.000387306
-5.74012e-05
-0.000505698
-0.000670406
-1.0156e-05
0.000100528
-5.11807e-06
6.29644e-05
-1.50737e-06
2.39905e-05
8.61086e-07
-1.69372e-05
1.94961e-06
-6.06437e-05
1.52901e-06
-0.000108229
-8.45416e-07
-0.000161098
-5.47243e-06
-0.000221139
-1.24069e-05
-0.000291768
-2.05655e-05
-0.00037914
-2.51208e-05
-0.000501136
-0.000695519
9.53659e-05
9.14874e-05
0.000102249
5.60896e-05
0.000107306
1.89421e-05
0.000110505
-2.01287e-05
0.000111471
-6.16016e-05
0.000109484
-0.000106233
0.000103427
-0.000155034
9.19346e-05
-0.000209638
7.34867e-05
-0.000273312
4.73998e-05
-0.000353045
1.64526e-05
-0.00047018
-0.000679059
0.000199138
7.9577e-05
0.000208823
4.6414e-05
0.000216595
1.11785e-05
0.000222237
-2.57623e-05
0.000225049
-6.44046e-05
0.000223805
-0.00010498
0.000216601
-0.00014782
0.000200888
-0.000193916
0.000173207
-0.000245622
0.000129893
-0.000309723
6.93714e-05
-0.000409651
-0.000609679
0.000304133
6.44182e-05
0.000317372
3.31846e-05
0.000329016
-4.56104e-07
0.000338652
-3.53896e-05
0.000345264
-7.10068e-05
0.000347133
-0.00010684
0.000341585
-0.000142264
0.000325007
-0.000177328
0.000291959
-0.000212565
0.000235853
-0.000253608
0.000146065
-0.000319854
-0.000463605
0.00041493
4.65176e-05
0.000431884
1.62402e-05
0.000448117
-1.66784e-05
0.000462891
-5.01547e-05
0.000474817
-8.29225e-05
0.000481682
-0.000113695
0.000480244
-0.000140817
0.000466277
-0.000163352
0.000432868
-0.000179146
0.000371639
-0.000192369
0.000257299
-0.000205504
-0.000206296
0.000536174
2.69835e-05
0.000556616
-4.19077e-06
0.000577782
-3.78346e-05
0.000598272
-7.06344e-05
0.000616213
-0.000100853
0.000628867
-0.000126338
0.000632818
-0.000144758
0.000624111
-0.000154634
0.000596231
-0.000151256
0.00053817
-0.000134298
0.00040804
-7.53638e-05
0.000201755
5.05834e-05
-5.05788e-05
9.98275e-05
-4.92395e-05
0.000132591
-3.27593e-05
0.00014744
-1.48441e-05
0.000153046
-5.60086e-06
0.000148782
4.26854e-06
0.000114965
3.38214e-05
4.20492e-05
7.29205e-05
-9.72988e-05
0.000139353
-0.000291542
0.000194248
-0.000439413
0.000147875
0.000109566
-0.000548975
4.48111e-05
-9.53847e-05
7.5856e-05
-8.02793e-05
8.13108e-05
-3.82089e-05
6.59438e-05
5.28049e-07
2.51546e-05
3.51936e-05
-5.20504e-05
8.14788e-05
-0.000175555
0.000157331
-0.000325758
0.000223129
-0.000429888
0.000243488
-0.000466348
0.000230712
-0.000503211
0.000184744
0.000145209
-0.000538849
3.31395e-05
-0.000128518
4.75602e-05
-9.46943e-05
3.64377e-05
-2.70806e-05
-3.37601e-06
4.03475e-05
-8.45262e-05
0.000116349
-0.00020431
0.000201268
-0.000316136
0.000269162
-0.000381747
0.000288746
-0.000412833
0.000274579
-0.000422603
0.000240487
-0.000433425
0.000195572
0.000155336
-0.000443547
-3.16544e-06
-0.000125347
-1.7312e-05
-8.05415e-05
-5.02328e-05
5.84651e-06
-0.000108406
9.85273e-05
-0.000189821
0.00019777
-0.000267228
0.000278681
-0.000313537
0.000315478
-0.000332224
0.000307439
-0.00033806
0.000280421
-0.000339712
0.000242146
-0.000342547
0.000198413
0.000156948
-0.000344153
-2.87672e-05
-9.65728e-05
-6.70268e-05
-4.22752e-05
-0.000114846
5.36727e-05
-0.000171099
0.000154787
-0.000224517
0.000251195
-0.000255544
0.000309715
-0.000261677
0.000321617
-0.000257242
0.00030301
-0.00024893
0.000272116
-0.000241191
0.000234413
-0.000236323
0.000193552
0.000153157
-0.000232525
-5.17658e-05
-4.47997e-05
-0.000101366
7.33182e-06
-0.000148663
0.000100978
-0.000185276
0.000191407
-0.000203473
0.000269399
-0.000199654
0.000305903
-0.00018492
0.00030689
-0.00016798
0.000286078
-0.000152375
0.000256518
-0.000139726
0.000221771
-0.000130479
0.000184312
0.000146213
-0.000123527
-6.6063e-05
2.12712e-05
-0.000120933
6.22092e-05
-0.000155943
0.000135996
-0.000166339
0.000201811
-0.000153679
0.000256747
-0.000128138
0.000280369
-0.000100317
0.000279077
-7.56517e-05
0.00026142
-5.50147e-05
0.000235889
-3.86881e-05
0.000205452
-2.63571e-05
0.000171989
0.000136921
-1.70577e-05
-7.54994e-05
9.6779e-05
-0.000123136
0.000109854
-0.000139465
0.000152332
-0.000126345
0.0001887
-9.31028e-05
0.000223513
-5.39605e-05
0.000241235
-1.69999e-05
0.000242124
1.41831e-05
0.000230245
3.94375e-05
0.000210643
5.92873e-05
0.00018561
7.4564e-05
0.00015672
0.000125176
8.63176e-05
-7.08244e-05
0.000167612
-0.000107382
0.000146421
-0.000103408
0.000148368
-7.38794e-05
0.00015918
-2.88007e-05
0.000178443
1.93029e-05
0.00019314
6.33855e-05
0.000198051
0.000100402
0.000193238
0.000130285
0.000180769
0.000153921
0.000161983
0.000172495
0.000138154
0.000110461
0.000187219
-7.06449e-05
0.000238267
-7.17771e-05
0.000147563
-4.20419e-05
0.000118642
1.26196e-06
0.000115885
5.30058e-05
0.000126709
0.000104914
0.000141242
0.000151812
0.000151162
0.000191482
0.000153577
0.00022394
0.000148321
0.000250151
0.000135781
0.000271396
0.000116919
9.29017e-05
0.000288965
-4.51221e-08
0.000238322
3.13286e-05
0.000116199
8.05724e-05
6.9408e-05
0.000130552
6.59161e-05
0.000179613
7.76573e-05
0.000225581
9.5283e-05
0.000266682
0.000110071
0.000302034
0.000118235
0.000331816
0.000118548
0.000356833
0.000110774
0.000378157
9.56046e-05
7.40486e-05
0.00039702
0.000193732
4.46008e-05
0.000267223
4.27181e-05
0.000313276
2.33656e-05
0.000345647
3.35553e-05
0.000372101
5.12139e-05
0.000396966
7.04282e-05
0.000420675
8.6373e-05
0.000442765
9.6155e-05
0.000462959
9.83649e-05
0.000481544
9.21997e-05
0.000499057
7.81024e-05
0.00051663
5.64862e-05
-0.000628598
7.96204e-05
-0.000677849
4.92697e-05
-0.000703231
2.53805e-05
-0.000703946
7.18692e-07
-0.000683839
-2.01026e-05
-0.000641683
-4.21517e-05
-0.000576465
-6.52137e-05
-0.000486549
-8.99113e-05
-0.000370503
-0.000116042
-0.000229384
-0.000141114
-8.56851e-05
-0.000143695
-8.56807e-05
-0.000564287
0.000105062
-0.000582078
6.70678e-05
-0.000589516
3.28232e-05
-0.000588404
-3.88298e-07
-0.000576618
-3.18842e-05
-0.000552898
-6.58667e-05
-0.000515524
-0.000102582
-0.000462381
-0.00014305
-0.00039069
-0.000187728
-0.000298487
-0.000233312
-0.000175565
-0.000266611
-0.000261241
-0.000452871
0.000114391
-0.000460179
7.43808e-05
-0.000463143
3.57931e-05
-0.00046072
-2.80548e-06
-0.000450217
-4.23821e-05
-0.000431523
-8.45552e-05
-0.000403449
-0.00013065
-0.000364981
-0.000181513
-0.000314438
-0.000238265
-0.000246813
-0.000300932
-0.000151266
-0.000362153
-0.000412502
-0.000345091
0.000115335
-0.000344862
7.41573e-05
-0.000342538
3.34761e-05
-0.000337425
-7.91283e-06
-0.000328544
-5.12574e-05
-0.000315175
-9.79183e-05
-0.000296167
-0.000149652
-0.000270414
-0.00020726
-0.000236014
-0.000272658
-0.000187403
-0.000349538
-0.000114021
-0.000435528
-0.000526517
-0.000229685
0.000112501
-0.000227276
7.17548e-05
-0.000224444
3.06514e-05
-0.000220552
-1.17983e-05
-0.000215034
-5.67685e-05
-0.000207352
-0.000105594
-0.00019677
-0.000160227
-0.000182356
-0.000221668
-0.000162098
-0.00029291
-0.000133893
-0.000377736
-8.65013e-05
-0.000482914
-0.000613012
-0.000118441
0.000107421
-0.000114673
6.79944e-05
-0.000111608
2.75934e-05
-0.000108823
-1.45765e-05
-0.000106021
-5.95629e-05
-0.000102951
-0.000108657
-9.96905e-05
-0.00016348
-9.55784e-05
-0.000225773
-8.97708e-05
-0.00029871
-8.01932e-05
-0.000387306
-5.74012e-05
-0.000505699
-0.000670406
-1.0156e-05
0.000100527
-5.1181e-06
6.29643e-05
-1.50743e-06
2.39904e-05
8.61013e-07
-1.69373e-05
1.94953e-06
-6.06437e-05
1.52892e-06
-0.000108229
-8.45491e-07
-0.000161098
-5.47249e-06
-0.000221139
-1.2407e-05
-0.000291768
-2.05655e-05
-0.00037914
-2.51208e-05
-0.000501136
-0.00069552
9.53659e-05
9.14873e-05
0.000102249
5.60895e-05
0.000107306
1.8942e-05
0.000110505
-2.01287e-05
0.000111471
-6.16016e-05
0.000109484
-0.000106233
0.000103427
-0.000155034
9.19345e-05
-0.000209638
7.34866e-05
-0.000273312
4.73997e-05
-0.000353045
1.64526e-05
-0.00047018
-0.000679059
0.000199138
7.95769e-05
0.000208822
4.64139e-05
0.000216595
1.11784e-05
0.000222237
-2.57623e-05
0.000225049
-6.44046e-05
0.000223805
-0.00010498
0.000216601
-0.00014782
0.000200888
-0.000193916
0.000173206
-0.000245622
0.000129893
-0.000309723
6.93714e-05
-0.000409651
-0.000609679
0.000304133
6.44181e-05
0.000317372
3.31846e-05
0.000329016
-4.56132e-07
0.000338652
-3.53896e-05
0.000345264
-7.10069e-05
0.000347133
-0.00010684
0.000341585
-0.000142264
0.000325007
-0.000177328
0.000291958
-0.000212565
0.000235853
-0.000253608
0.000146065
-0.000319854
-0.000463605
0.00041493
4.65176e-05
0.000431884
1.62402e-05
0.000448116
-1.66784e-05
0.000462891
-5.01547e-05
0.000474817
-8.29225e-05
0.000481682
-0.000113695
0.000480244
-0.000140817
0.000466277
-0.000163352
0.000432868
-0.000179146
0.000371639
-0.000192369
0.000257299
-0.000205504
-0.000206296
0.000536174
2.69835e-05
0.000556615
-4.19071e-06
0.000577782
-3.78346e-05
0.000598272
-7.06344e-05
0.000616213
-0.000100853
0.000628866
-0.000126338
0.000632818
-0.000144758
0.000624111
-0.000154634
0.000596231
-0.000151256
0.00053817
-0.000134298
0.00040804
-7.5364e-05
0.000201755
5.05835e-05
-5.05788e-05
9.98276e-05
-4.92395e-05
0.000132592
-3.27593e-05
0.00014744
-1.48441e-05
0.000153046
-5.60077e-06
0.000148782
4.26864e-06
0.000114965
3.38213e-05
4.20493e-05
7.29204e-05
-9.72986e-05
0.000139352
-0.000291541
0.000194247
-0.000439412
0.000147875
0.000109566
-0.000548975
4.48111e-05
-9.53847e-05
7.58559e-05
-8.02792e-05
8.13107e-05
-3.82088e-05
6.59437e-05
5.28091e-07
2.51545e-05
3.51937e-05
-5.20505e-05
8.14788e-05
-0.000175555
0.000157331
-0.000325758
0.000223129
-0.000429888
0.000243488
-0.000466347
0.000230712
-0.000503211
0.000184743
0.000145208
-0.000538849
3.31393e-05
-0.000128518
4.75599e-05
-9.46941e-05
3.64373e-05
-2.70804e-05
-3.37642e-06
4.03475e-05
-8.45265e-05
0.000116349
-0.00020431
0.000201268
-0.000316135
0.000269162
-0.000381747
0.000288746
-0.000412833
0.000274579
-0.000422602
0.000240487
-0.000433425
0.000195572
0.000155336
-0.000443547
-3.16561e-06
-0.000125346
-1.73123e-05
-8.05412e-05
-5.02331e-05
5.84668e-06
-0.000108407
9.85273e-05
-0.000189821
0.00019777
-0.000267228
0.000278681
-0.000313537
0.000315477
-0.000332224
0.000307439
-0.00033806
0.00028042
-0.000339712
0.000242145
-0.000342547
0.000198413
0.000156948
-0.000344153
-2.87673e-05
-9.65724e-05
-6.70269e-05
-4.22748e-05
-0.000114846
5.36728e-05
-0.000171099
0.000154787
-0.000224517
0.000251195
-0.000255544
0.000309715
-0.000261677
0.000321616
-0.000257241
0.00030301
-0.00024893
0.000272116
-0.000241191
0.000234413
-0.000236323
0.000193551
0.000153157
-0.000232525
-5.17658e-05
-4.47993e-05
-0.000101366
7.33219e-06
-0.000148663
0.000100978
-0.000185276
0.000191407
-0.000203473
0.000269399
-0.000199654
0.000305902
-0.00018492
0.00030689
-0.00016798
0.000286077
-0.000152375
0.000256518
-0.000139726
0.00022177
-0.000130479
0.000184312
0.000146213
-0.000123527
-6.60631e-05
2.12716e-05
-0.000120933
6.22096e-05
-0.000155943
0.000135996
-0.000166339
0.000201811
-0.000153679
0.000256747
-0.000128138
0.000280369
-0.000100317
0.000279076
-7.56517e-05
0.00026142
-5.50147e-05
0.000235888
-3.86881e-05
0.000205452
-2.63571e-05
0.000171988
0.000136921
-1.70577e-05
-7.54994e-05
9.67794e-05
-0.000123136
0.000109855
-0.000139465
0.000152333
-0.000126345
0.0001887
-9.31028e-05
0.000223512
-5.39605e-05
0.000241235
-1.69999e-05
0.000242124
1.4183e-05
0.000230245
3.94375e-05
0.000210642
5.92873e-05
0.00018561
7.4564e-05
0.00015672
0.000125176
8.63176e-05
-7.08244e-05
0.000167613
-0.000107382
0.000146421
-0.000103408
0.000148368
-7.38793e-05
0.00015918
-2.88007e-05
0.000178443
1.93029e-05
0.00019314
6.33855e-05
0.00019805
0.000100402
0.000193237
0.000130285
0.000180769
0.000153921
0.000161983
0.000172495
0.000138154
0.000110461
0.000187219
-7.06448e-05
0.000238267
-7.17769e-05
0.000147563
-4.20417e-05
0.000118642
1.26215e-06
0.000115885
5.3006e-05
0.000126708
0.000104914
0.000141241
0.000151812
0.000151161
0.000191482
0.000153576
0.00022394
0.00014832
0.000250151
0.000135781
0.000271396
0.000116918
9.29013e-05
0.000288965
-4.49636e-08
0.000238322
3.13289e-05
0.000116199
8.05727e-05
6.94079e-05
0.000130552
6.5916e-05
0.000179613
7.76571e-05
0.000225582
9.52827e-05
0.000266682
0.000110071
0.000302034
0.000118235
0.000331816
0.000118548
0.000356833
0.000110774
0.000378157
9.56042e-05
7.40482e-05
0.00039702
0.000193732
4.46007e-05
0.000267224
4.2718e-05
0.000313277
2.33656e-05
0.000345648
3.35552e-05
0.000372102
5.12137e-05
0.000396967
7.04279e-05
0.000420675
8.63726e-05
0.000442766
9.61545e-05
0.000462959
9.83644e-05
0.000481545
9.21992e-05
0.000499057
7.81019e-05
0.00051663
5.64857e-05
-0.000628597
7.96203e-05
-0.000677848
4.92696e-05
-0.000703231
2.53805e-05
-0.000703945
7.18653e-07
-0.000683838
-2.01026e-05
-0.000641682
-4.21517e-05
-0.000576464
-6.52137e-05
-0.000486549
-8.99112e-05
-0.000370502
-0.000116042
-0.000229384
-0.000141114
-8.56848e-05
-0.000143695
-8.56803e-05
-0.000564286
0.000105062
-0.000582077
6.70677e-05
-0.000589516
3.28231e-05
-0.000588404
-3.8836e-07
-0.000576617
-3.18842e-05
-0.000552897
-6.58667e-05
-0.000515524
-0.000102582
-0.000462381
-0.00014305
-0.00039069
-0.000187728
-0.000298486
-0.000233312
-0.000175565
-0.000266611
-0.00026124
-0.000452871
0.000114391
-0.000460178
7.43807e-05
-0.000463143
3.5793e-05
-0.00046072
-2.80555e-06
-0.000450217
-4.23821e-05
-0.000431523
-8.45552e-05
-0.000403449
-0.00013065
-0.00036498
-0.000181513
-0.000314438
-0.000238265
-0.000246813
-0.000300932
-0.000151266
-0.000362152
-0.000412501
-0.000345091
0.000115335
-0.000344861
7.41572e-05
-0.000342538
3.34759e-05
-0.000337425
-7.9129e-06
-0.000328543
-5.12574e-05
-0.000315174
-9.79183e-05
-0.000296167
-0.000149651
-0.000270414
-0.00020726
-0.000236014
-0.000272658
-0.000187402
-0.000349538
-0.000114021
-0.000435528
-0.000526517
-0.000229685
0.0001125
-0.000227275
7.17546e-05
-0.000224444
3.06512e-05
-0.000220552
-1.17984e-05
-0.000215034
-5.67686e-05
-0.000207352
-0.000105594
-0.00019677
-0.000160227
-0.000182355
-0.000221668
-0.000162098
-0.000292909
-0.000133893
-0.000377735
-8.65013e-05
-0.000482913
-0.000613011
-0.000118441
0.000107421
-0.000114673
6.79943e-05
-0.000111608
2.75932e-05
-0.000108823
-1.45766e-05
-0.000106021
-5.95629e-05
-0.000102951
-0.000108657
-9.96904e-05
-0.00016348
-9.55783e-05
-0.000225773
-8.97707e-05
-0.00029871
-8.01932e-05
-0.000387306
-5.74012e-05
-0.000505698
-0.000670406
-1.01559e-05
0.000100527
-5.11803e-06
6.29641e-05
-1.50735e-06
2.39903e-05
8.61106e-07
-1.69374e-05
1.94962e-06
-6.06438e-05
1.52902e-06
-0.000108229
-8.45408e-07
-0.000161098
-5.47243e-06
-0.000221138
-1.24069e-05
-0.000291768
-2.05655e-05
-0.00037914
-2.51208e-05
-0.000501135
-0.000695519
9.53659e-05
9.1487e-05
0.000102249
5.60892e-05
0.000107306
1.89419e-05
0.000110505
-2.01288e-05
0.000111471
-6.16017e-05
0.000109484
-0.000106233
0.000103427
-0.000155034
9.19345e-05
-0.000209638
7.34866e-05
-0.000273312
4.73997e-05
-0.000353045
1.64526e-05
-0.00047018
-0.000679058
0.000199138
7.95766e-05
0.000208823
4.64136e-05
0.000216595
1.11783e-05
0.000222237
-2.57624e-05
0.000225049
-6.44046e-05
0.000223805
-0.00010498
0.000216601
-0.00014782
0.000200888
-0.000193916
0.000173207
-0.000245622
0.000129893
-0.000309722
6.93714e-05
-0.00040965
-0.000609678
0.000304133
6.44178e-05
0.000317372
3.31843e-05
0.000329016
-4.56296e-07
0.000338652
-3.53897e-05
0.000345264
-7.10069e-05
0.000347133
-0.00010684
0.000341585
-0.000142264
0.000325007
-0.000177328
0.000291958
-0.000212564
0.000235853
-0.000253607
0.000146065
-0.000319853
-0.000463604
0.00041493
4.65173e-05
0.000431884
1.62399e-05
0.000448117
-1.66785e-05
0.000462891
-5.01547e-05
0.000474817
-8.29224e-05
0.000481682
-0.000113695
0.000480244
-0.000140816
0.000466277
-0.000163351
0.000432868
-0.000179146
0.000371639
-0.000192368
0.000257299
-0.000205504
-0.000206295
0.000536175
2.69832e-05
0.000556616
-4.19094e-06
0.000577782
-3.78347e-05
0.000598272
-7.06344e-05
0.000616213
-0.000100853
0.000628866
-0.000126338
0.000632818
-0.000144758
0.000624111
-0.000154634
0.000596231
-0.000151256
0.00053817
-0.000134297
0.00040804
-7.53636e-05
0.000201755
5.05834e-05
-5.05787e-05
9.98274e-05
-4.92395e-05
0.000132591
-3.27593e-05
0.00014744
-1.48441e-05
0.000153046
-5.60083e-06
0.000148782
4.26846e-06
0.000114965
3.38211e-05
4.20498e-05
7.29203e-05
-9.72975e-05
0.000139352
-0.00029154
0.000194248
-0.000439412
0.000147875
0.000109566
-0.000548974
4.48111e-05
-9.53846e-05
7.5856e-05
-8.02793e-05
8.13109e-05
-3.8209e-05
6.5944e-05
5.27923e-07
2.5155e-05
3.51934e-05
-5.20496e-05
8.14783e-05
-0.000175554
0.00015733
-0.000325757
0.000223128
-0.000429887
0.000243488
-0.000466347
0.000230712
-0.00050321
0.000184744
0.000145209
-0.000538848
3.31395e-05
-0.000128518
4.75603e-05
-9.46944e-05
3.64379e-05
-2.70808e-05
-3.37553e-06
4.03471e-05
-8.45253e-05
0.000116349
-0.000204309
0.000201268
-0.000316135
0.000269161
-0.000381747
0.000288746
-0.000412833
0.000274579
-0.000422602
0.000240487
-0.000433425
0.000195572
0.000155336
-0.000443547
-3.16529e-06
-0.000125347
-1.73117e-05
-8.05417e-05
-5.02323e-05
5.8461e-06
-0.000108406
9.85267e-05
-0.00018982
0.00019777
-0.000267227
0.000278681
-0.000313537
0.000315477
-0.000332224
0.000307439
-0.000338059
0.000280421
-0.000339712
0.000242146
-0.000342547
0.000198413
0.000156948
-0.000344153
-2.8767e-05
-9.65731e-05
-6.70264e-05
-4.22756e-05
-0.000114846
5.36721e-05
-0.000171099
0.000154786
-0.000224516
0.000251194
-0.000255544
0.000309715
-0.000261677
0.000321617
-0.000257241
0.00030301
-0.00024893
0.000272116
-0.000241191
0.000234413
-0.000236323
0.000193552
0.000153157
-0.000232525
-5.17657e-05
-4.48001e-05
-0.000101365
7.33134e-06
-0.000148663
0.000100977
-0.000185276
0.000191407
-0.000203473
0.000269399
-0.000199654
0.000305902
-0.00018492
0.00030689
-0.00016798
0.000286078
-0.000152375
0.000256518
-0.000139726
0.000221771
-0.000130479
0.000184312
0.000146213
-0.000123527
-6.60631e-05
2.12709e-05
-0.000120933
6.22088e-05
-0.000155943
0.000135995
-0.000166339
0.000201811
-0.000153679
0.000256746
-0.000128138
0.000280369
-0.000100317
0.000279076
-7.56518e-05
0.00026142
-5.50147e-05
0.000235889
-3.86881e-05
0.000205452
-2.6357e-05
0.000171988
0.000136921
-1.70576e-05
-7.54995e-05
9.67788e-05
-0.000123136
0.000109854
-0.000139465
0.000152332
-0.000126345
0.000188699
-9.31031e-05
0.000223512
-5.39608e-05
0.000241235
-1.70001e-05
0.000242124
1.41829e-05
0.000230245
3.94374e-05
0.000210643
5.92873e-05
0.00018561
7.4564e-05
0.00015672
0.000125176
8.63176e-05
-7.08245e-05
0.000167612
-0.000107382
0.000146421
-0.000103409
0.000148367
-7.38797e-05
0.000159179
-2.88011e-05
0.000178443
1.93026e-05
0.00019314
6.33852e-05
0.00019805
0.000100402
0.000193237
0.000130285
0.000180769
0.000153921
0.000161983
0.000172495
0.000138154
0.000110461
0.000187219
-7.0645e-05
0.000238267
-7.17772e-05
0.000147563
-4.20421e-05
0.000118642
1.2617e-06
0.000115885
5.30055e-05
0.000126708
0.000104914
0.000141241
0.000151812
0.000151161
0.000191482
0.000153576
0.000223939
0.000148321
0.000250151
0.000135781
0.000271396
0.000116918
9.29015e-05
0.000288965
-4.51206e-08
0.000238322
3.13286e-05
0.000116199
8.05723e-05
6.94078e-05
0.000130551
6.59159e-05
0.000179613
7.7657e-05
0.000225581
9.52826e-05
0.000266682
0.000110071
0.000302033
0.000118235
0.000331816
0.000118548
0.000356833
0.000110774
0.000378157
9.56043e-05
7.40483e-05
0.00039702
0.000193732
4.46008e-05
0.000267223
4.2718e-05
0.000313276
2.33655e-05
0.000345647
3.3555e-05
0.000372101
5.12135e-05
0.000396966
7.04278e-05
0.000420675
8.63725e-05
0.000442765
9.61545e-05
0.000462959
9.83644e-05
0.000481544
9.21992e-05
0.000499057
7.8102e-05
0.00051663
5.64858e-05
-0.000628597
7.96205e-05
-0.000677848
4.92697e-05
-0.00070323
2.53806e-05
-0.000703945
7.18746e-07
-0.000683838
-2.01025e-05
-0.000641682
-4.21516e-05
-0.000576464
-6.52136e-05
-0.000486549
-8.99112e-05
-0.000370502
-0.000116042
-0.000229384
-0.000141114
-8.56848e-05
-0.000143695
-8.56804e-05
-0.000564286
0.000105062
-0.000582077
6.70679e-05
-0.000589515
3.28233e-05
-0.000588404
-3.88211e-07
-0.000576617
-3.18841e-05
-0.000552897
-6.58665e-05
-0.000515524
-0.000102582
-0.000462381
-0.000143049
-0.00039069
-0.000187728
-0.000298486
-0.000233312
-0.000175565
-0.000266611
-0.000261241
-0.000452871
0.000114391
-0.000460178
7.43809e-05
-0.000463143
3.57932e-05
-0.00046072
-2.80537e-06
-0.000450217
-4.23819e-05
-0.000431523
-8.45551e-05
-0.000403449
-0.00013065
-0.00036498
-0.000181513
-0.000314438
-0.000238265
-0.000246813
-0.000300932
-0.000151266
-0.000362152
-0.000412501
-0.000345091
0.000115335
-0.000344861
7.41574e-05
-0.000342538
3.34761e-05
-0.000337425
-7.91272e-06
-0.000328543
-5.12572e-05
-0.000315174
-9.79182e-05
-0.000296167
-0.000149651
-0.000270414
-0.00020726
-0.000236014
-0.000272658
-0.000187402
-0.000349537
-0.000114021
-0.000435528
-0.000526517
-0.000229684
0.000112501
-0.000227275
7.17549e-05
-0.000224444
3.06514e-05
-0.000220552
-1.17982e-05
-0.000215034
-5.67684e-05
-0.000207352
-0.000105594
-0.00019677
-0.000160227
-0.000182355
-0.000221668
-0.000162098
-0.000292909
-0.000133893
-0.000377735
-8.65013e-05
-0.000482913
-0.000613011
-0.000118441
0.000107421
-0.000114673
6.79945e-05
-0.000111608
2.75934e-05
-0.000108823
-1.45764e-05
-0.000106021
-5.95628e-05
-0.000102951
-0.000108657
-9.96903e-05
-0.00016348
-9.55783e-05
-0.000225773
-8.97706e-05
-0.00029871
-8.01931e-05
-0.000387306
-5.74012e-05
-0.000505698
-0.000670406
-1.01558e-05
0.000100527
-5.11792e-06
6.29643e-05
-1.50724e-06
2.39904e-05
8.61214e-07
-1.69372e-05
1.94973e-06
-6.06436e-05
1.52911e-06
-0.000108229
-8.45323e-07
-0.000161098
-5.47235e-06
-0.000221138
-1.24069e-05
-0.000291768
-2.05654e-05
-0.00037914
-2.51208e-05
-0.000501135
-0.000695519
9.5366e-05
9.14872e-05
0.000102249
5.60894e-05
0.000107306
1.89421e-05
0.000110505
-2.01286e-05
0.000111472
-6.16015e-05
0.000109484
-0.000106233
0.000103427
-0.000155033
9.19346e-05
-0.000209637
7.34867e-05
-0.000273312
4.73998e-05
-0.000353045
1.64526e-05
-0.00047018
-0.000679058
0.000199138
7.95767e-05
0.000208823
4.64138e-05
0.000216595
1.11784e-05
0.000222237
-2.57622e-05
0.000225049
-6.44045e-05
0.000223805
-0.00010498
0.000216601
-0.00014782
0.000200888
-0.000193916
0.000173207
-0.000245622
0.000129893
-0.000309722
6.93714e-05
-0.00040965
-0.000609678
0.000304133
6.44179e-05
0.000317372
3.31845e-05
0.000329016
-4.56155e-07
0.000338652
-3.53895e-05
0.000345264
-7.10067e-05
0.000347133
-0.00010684
0.000341585
-0.000142264
0.000325007
-0.000177328
0.000291958
-0.000212564
0.000235853
-0.000253607
0.000146065
-0.000319853
-0.000463604
0.00041493
4.65174e-05
0.000431884
1.624e-05
0.000448117
-1.66784e-05
0.000462891
-5.01546e-05
0.000474817
-8.29223e-05
0.000481682
-0.000113695
0.000480244
-0.000140816
0.000466277
-0.000163351
0.000432868
-0.000179146
0.000371639
-0.000192368
0.000257299
-0.000205504
-0.000206295
0.000536174
2.69833e-05
0.000556616
-4.19087e-06
0.000577782
-3.78346e-05
0.000598272
-7.06343e-05
0.000616213
-0.000100853
0.000628866
-0.000126338
0.000632818
-0.000144758
0.000624111
-0.000154634
0.000596231
-0.000151255
0.00053817
-0.000134297
0.00040804
-7.53635e-05
0.000201755
0.000723811
9.70313e-05
-0.00077623
0.000695089
7.14506e-05
0.000657315
6.11502e-05
0.000630782
6.00987e-05
0.000614999
6.70074e-05
0.000607967
7.74702e-05
0.000607231
8.71194e-05
0.000610623
9.27742e-05
0.000616716
9.22826e-05
0.000625156
8.37698e-05
0.000635919
6.73506e-05
4.19763e-05
0.000650439
0.000934364
0.00010085
-0.000938171
0.000913864
9.19618e-05
0.000886536
8.84886e-05
0.000858253
8.83936e-05
0.000833111
9.21606e-05
0.000812788
9.78043e-05
0.000797558
0.00010236
0.000787175
0.000103169
0.000781405
9.80639e-05
0.00078071
8.44753e-05
0.000785393
6.26791e-05
2.91241e-05
0.000798256
0.00106339
0.000100209
-0.00106274
0.0010554
9.996e-05
0.00104193
0.000101971
0.0010245
0.000105834
0.00100523
0.000111444
0.000986073
0.000116974
0.000968568
0.000119877
0.000954094
0.000117655
0.000944077
0.000108093
0.000940414
8.81498e-05
0.000944634
5.84708e-05
1.21214e-05
0.000961648
0.00117226
-0.00117116
9.91285e-05
0.0011702
0.000102032
0.00116416
0.000108023
0.00115454
0.000115461
0.00114244
0.000123551
0.00112953
0.000129904
0.00111747
0.000131948
0.00110817