/*--------------------------------*- C++ -*----------------------------------*\
| =========                 |                                                 |
| \\      /  F ield         | OpenFOAM: The Open Source CFD Toolbox           |
|  \\    /   O peration     | Version:  2212                                  |
|   \\  /    A nd           | Website:  www.openfoam.com                      |
|    \\/     M anipulation  |                                                 |
\*---------------------------------------------------------------------------*/
FoamFile
{
    version     2.0;
    format      ascii;
    arch        "LSB;label=32;scalar=64";
    class       volScalarField;
    location    "0.06";
    object      rho;
}
// * * * * * * * * * * * * * * * * * * * * * * * * * * * * * * * * * * * * * //

dimensions      [1 -3 0 0 0 0 0];

internalField   nonuniform List<scalar> 
3072
(
1.16842
1.16821
1.1681
1.16804
1.16806
1.16825
1.16896
1.17014
1.16974
1.16969
1.16983
1.16977
1.17002
1.1696
1.16963
1.16978
1.17028
1.17046
1.17106
1.1719
1.17302
1.17381
1.17429
1.17452
1.17116
1.17059
1.17084
1.17117
1.17158
1.17216
1.17298
1.17369
1.17443
1.17497
1.17538
1.17567
1.17296
1.17239
1.17272
1.17312
1.17373
1.17444
1.17516
1.17582
1.17638
1.17678
1.17708
1.17733
1.17463
1.17434
1.17471
1.17521
1.17585
1.17652
1.17716
1.17771
1.17814
1.17844
1.17867
1.17885
1.17645
1.17638
1.17674
1.17729
1.17789
1.17846
1.17897
1.17937
1.17968
1.17991
1.18007
1.1802
1.17824
1.17839
1.17875
1.17929
1.17981
1.18027
1.18063
1.18091
1.1811
1.18124
1.18134
1.18141
1.17998
1.18039
1.1807
1.18117
1.18158
1.1819
1.18213
1.18228
1.18237
1.18242
1.18245
1.18247
1.18188
1.18234
1.1825
1.18289
1.18314
1.18332
1.18342
1.18346
1.18346
1.18345
1.18342
1.1834
1.18362
1.18393
1.18401
1.18429
1.18443
1.1845
1.1845
1.18447
1.18441
1.18434
1.18428
1.18422
1.18503
1.18534
1.18523
1.18544
1.18553
1.18553
1.18547
1.18537
1.18526
1.18516
1.18506
1.18498
1.18506
1.18644
1.18641
1.18656
1.18658
1.18652
1.18639
1.18624
1.18609
1.18595
1.18582
1.18571
1.16992
1.1701
1.17043
1.17093
1.1715
1.17207
1.17269
1.17315
1.17346
1.1734
1.17318
1.17253
1.17474
1.17486
1.17499
1.17515
1.17536
1.17556
1.17575
1.17585
1.17584
1.17574
1.17518
1.17365
1.17585
1.176
1.17616
1.17636
1.17657
1.17677
1.17691
1.17695
1.17683
1.17666
1.17615
1.174
1.17753
1.1777
1.17786
1.17799
1.1781
1.17817
1.1782
1.17813
1.17792
1.17761
1.17713
1.17485
1.17899
1.17911
1.17922
1.1793
1.17937
1.17941
1.1794
1.17933
1.17914
1.17881
1.17843
1.17631
1.1803
1.18038
1.18046
1.18053
1.18059
1.18064
1.18066
1.18064
1.18054
1.18031
1.18003
1.17826
1.18146
1.18152
1.18157
1.18164
1.18171
1.1818
1.18189
1.18197
1.18202
1.18197
1.18194
1.18069
1.18249
1.18252
1.18257
1.18264
1.18274
1.18288
1.18306
1.18327
1.18352
1.18374
1.18411
1.18351
1.18339
1.1834
1.18344
1.18352
1.18365
1.18384
1.18411
1.18447
1.18493
1.18546
1.18632
1.18672
1.18419
1.18419
1.18422
1.1843
1.18445
1.18469
1.18503
1.18551
1.18615
1.18699
1.18842
1.18984
1.18493
1.18491
1.18493
1.18501
1.18516
1.18541
1.18579
1.18633
1.18709
1.18814
1.19011
1.19264
1.18563
1.18559
1.18559
1.18565
1.18578
1.18602
1.18639
1.18693
1.18769
1.1888
1.19089
1.19467
1.16832
1.16814
1.16804
1.16798
1.16801
1.16813
1.16862
1.16998
1.16955
1.1695
1.16964
1.16961
1.16993
1.16954
1.16956
1.16967
1.1701
1.17038
1.17074
1.17147
1.17253
1.17339
1.17392
1.17418
1.17103
1.17049
1.17069
1.17101
1.17138
1.17184
1.17259
1.17329
1.17401
1.17457
1.175
1.17532
1.1728
1.17221
1.1725
1.17284
1.17339
1.17404
1.17475
1.1754
1.17598
1.17641
1.17674
1.17698
1.17442
1.17409
1.17442
1.17486
1.17546
1.17611
1.17676
1.17732
1.17777
1.1781
1.17833
1.17852
1.17625
1.17612
1.17646
1.17696
1.17753
1.17809
1.17861
1.17902
1.17934
1.17957
1.17975
1.17987
1.17804
1.17815
1.17848
1.17899
1.17949
1.17994
1.1803
1.18058
1.18079
1.18093
1.18103
1.1811
1.1798
1.18015
1.18045
1.18091
1.1813
1.18162
1.18184
1.18199
1.18208
1.18214
1.18217
1.18219
1.18171
1.1821
1.18227
1.18264
1.1829
1.18307
1.18317
1.18321
1.18321
1.18319
1.18316
1.18314
1.18342
1.1837
1.18379
1.18407
1.18422
1.18429
1.18429
1.18425
1.18419
1.18411
1.18404
1.18398
1.18483
1.18512
1.18504
1.18527
1.18537
1.18537
1.18531
1.1852
1.18508
1.18496
1.18485
1.18476
1.18491
1.18624
1.18624
1.18642
1.18647
1.18641
1.18628
1.18612
1.18595
1.18579
1.18563
1.18551
1.16973
1.1699
1.17018
1.17062
1.17115
1.17165
1.17223
1.17264
1.17291
1.17283
1.17259
1.17196
1.17442
1.17453
1.17464
1.17477
1.17495
1.17512
1.17526
1.17534
1.17531
1.17517
1.17462
1.17312
1.1755
1.17565
1.1758
1.17597
1.17617
1.17634
1.17646
1.17648
1.17635
1.17617
1.17566
1.17354
1.17718
1.17735
1.1775
1.17762
1.17771
1.17777
1.17778
1.1777
1.17747
1.17716
1.17668
1.17442
1.17866
1.17877
1.17887
1.17894
1.179
1.17902
1.17901
1.17892
1.17872
1.17839
1.17801
1.17588
1.17997
1.18005
1.18012
1.18018
1.18023
1.18027
1.18028
1.18025
1.18013
1.17988
1.1796
1.17781
1.18116
1.1812
1.18126
1.18131
1.18138
1.18145
1.18152
1.18159
1.18161
1.18154
1.18148
1.1802
1.1822
1.18223
1.18227
1.18233
1.18242
1.18254
1.1827
1.1829
1.18311
1.1833
1.18361
1.18296
1.18312
1.18313
1.18316
1.18323
1.18335
1.18353
1.18378
1.1841
1.18453
1.18502
1.1858
1.1861
1.18394
1.18393
1.18396
1.18403
1.18417
1.18439
1.18471
1.18515
1.18576
1.18655
1.18787
1.18919
1.1847
1.18467
1.18468
1.18475
1.18489
1.18513
1.18549
1.186
1.18672
1.18772
1.18959
1.19201
1.18541
1.18536
1.18535
1.18541
1.18553
1.18576
1.1861
1.18662
1.18734
1.18842
1.19042
1.19414
1.16842
1.16821
1.1681
1.16804
1.16806
1.16825
1.16896
1.17014
1.16974
1.16969
1.16983
1.16977
1.17002
1.1696
1.16963
1.16978
1.17028
1.17046
1.17106
1.1719
1.17302
1.17381
1.17429
1.17452
1.17116
1.17059
1.17084
1.17117
1.17158
1.17216
1.17298
1.17369
1.17443
1.17497
1.17538
1.17567
1.17296
1.17239
1.17272
1.17312
1.17373
1.17444
1.17516
1.17582
1.17638
1.17678
1.17708
1.17733
1.17463
1.17434
1.17471
1.17521
1.17585
1.17652
1.17716
1.17771
1.17814
1.17844
1.17867
1.17885
1.17645
1.17638
1.17674
1.17729
1.17789
1.17846
1.17897
1.17937
1.17968
1.17991
1.18007
1.1802
1.17824
1.17839
1.17875
1.17929
1.17981
1.18027
1.18063
1.18091
1.1811
1.18124
1.18134
1.18141
1.17998
1.18039
1.1807
1.18117
1.18158
1.1819
1.18213
1.18228
1.18237
1.18242
1.18245
1.18247
1.18188
1.18234
1.1825
1.18289
1.18314
1.18332
1.18342
1.18346
1.18346
1.18345
1.18342
1.1834
1.18362
1.18393
1.18401
1.18429
1.18443
1.1845
1.1845
1.18447
1.18441
1.18434
1.18428
1.18422
1.18503
1.18534
1.18522
1.18544
1.18553
1.18553
1.18547
1.18537
1.18526
1.18516
1.18506
1.18498
1.18506
1.18644
1.18641
1.18656
1.18658
1.18652
1.18639
1.18624
1.18609
1.18594
1.18582
1.18571
1.16992
1.1701
1.17043
1.17093
1.1715
1.17207
1.17269
1.17315
1.17346
1.1734
1.17318
1.17253
1.17474
1.17486
1.17499
1.17515
1.17536
1.17556
1.17575
1.17585
1.17584
1.17574
1.17518
1.17365
1.17585
1.176
1.17616
1.17635
1.17657
1.17677
1.17691
1.17695
1.17683
1.17666
1.17615
1.174
1.17753
1.1777
1.17786
1.17799
1.1781
1.17817
1.1782
1.17813
1.17792
1.17761
1.17713
1.17485
1.17899
1.17911
1.17922
1.1793
1.17937
1.17941
1.1794
1.17933
1.17914
1.17881
1.17843
1.17631
1.1803
1.18038
1.18046
1.18053
1.18059
1.18064
1.18066
1.18064
1.18054
1.18031
1.18003
1.17826
1.18146
1.18152
1.18157
1.18164
1.18171
1.1818
1.18189
1.18197
1.18202
1.18197
1.18194
1.18069
1.18249
1.18252
1.18257
1.18264
1.18274
1.18288
1.18306
1.18327
1.18352
1.18374
1.1841
1.18351
1.18339
1.1834
1.18344
1.18352
1.18365
1.18384
1.18411
1.18447
1.18493
1.18546
1.18632
1.18672
1.18419
1.18419
1.18422
1.1843
1.18445
1.18469
1.18503
1.18551
1.18615
1.18699
1.18841
1.18984
1.18493
1.18491
1.18493
1.18501
1.18516
1.18541
1.18579
1.18633
1.18709
1.18814
1.19011
1.19264
1.18563
1.18559
1.18559
1.18565
1.18578
1.18602
1.18639
1.18693
1.18769
1.1888
1.19089
1.19467
1.16832
1.16814
1.16804
1.16798
1.16801
1.16813
1.16862
1.16998
1.16955
1.1695
1.16964
1.16961
1.16993
1.16954
1.16956
1.16967
1.1701
1.17038
1.17074
1.17147
1.17253
1.17339
1.17392
1.17418
1.17103
1.17049
1.17069
1.17101
1.17138
1.17184
1.17259
1.17329
1.17401
1.17457
1.175
1.17532
1.1728
1.17221
1.1725
1.17284
1.17339
1.17404
1.17475
1.1754
1.17598
1.17641
1.17674
1.17698
1.17442
1.17409
1.17442
1.17486
1.17546
1.17611
1.17676
1.17732
1.17777
1.1781
1.17833
1.17852
1.17625
1.17612
1.17646
1.17696
1.17753
1.17809
1.17861
1.17902
1.17934
1.17957
1.17975
1.17987
1.17804
1.17815
1.17848
1.17899
1.17949
1.17994
1.1803
1.18058
1.18079
1.18093
1.18103
1.1811
1.1798
1.18015
1.18045
1.18091
1.1813
1.18162
1.18184
1.18199
1.18208
1.18214
1.18217
1.18219
1.18171
1.1821
1.18227
1.18264
1.1829
1.18307
1.18317
1.18321
1.18321
1.18319
1.18316
1.18314
1.18342
1.1837
1.18379
1.18407
1.18422
1.18429
1.18429
1.18425
1.18419
1.18411
1.18404
1.18398
1.18483
1.18512
1.18504
1.18527
1.18537
1.18537
1.18531
1.1852
1.18508
1.18496
1.18485
1.18476
1.18491
1.18624
1.18624
1.18642
1.18647
1.18641
1.18628
1.18612
1.18595
1.18579
1.18563
1.18551
1.16973
1.1699
1.17019
1.17062
1.17115
1.17165
1.17223
1.17264
1.17291
1.17283
1.17259
1.17196
1.17442
1.17453
1.17464
1.17477
1.17495
1.17512
1.17526
1.17534
1.17531
1.17517
1.17462
1.17312
1.1755
1.17565
1.1758
1.17597
1.17617
1.17634
1.17646
1.17648
1.17635
1.17617
1.17566
1.17354
1.17718
1.17735
1.1775
1.17762
1.17771
1.17777
1.17778
1.1777
1.17747
1.17716
1.17668
1.17442
1.17866
1.17877
1.17887
1.17894
1.179
1.17902
1.17901
1.17892
1.17872
1.17839
1.17801
1.17588
1.17997
1.18005
1.18012
1.18018
1.18023
1.18027
1.18028
1.18025
1.18013
1.17988
1.1796
1.17781
1.18116
1.1812
1.18126
1.18131
1.18138
1.18145
1.18152
1.18159
1.18161
1.18154
1.18148
1.1802
1.1822
1.18223
1.18227
1.18233
1.18242
1.18254
1.1827
1.1829
1.18311
1.1833
1.18361
1.18296
1.18312
1.18313
1.18316
1.18323
1.18335
1.18353
1.18377
1.1841
1.18453
1.18502
1.1858
1.1861
1.18394
1.18393
1.18396
1.18403
1.18417
1.18439
1.18471
1.18515
1.18576
1.18655
1.18787
1.18919
1.1847
1.18467
1.18468
1.18475
1.18489
1.18513
1.18549
1.186
1.18672
1.18772
1.18959
1.19201
1.18541
1.18536
1.18535
1.18541
1.18553
1.18576
1.1861
1.18662
1.18734
1.18842
1.19042
1.19414
1.18797
1.18804
1.18787
1.18773
1.18758
1.18742
1.18724
1.18705
1.18686
1.18669
1.18653
1.1864
1.18819
1.18796
1.18801
1.18803
1.18801
1.18794
1.1878
1.18765
1.18748
1.18731
1.18716
1.18702
1.1882
1.1881
1.18815
1.18819
1.18819
1.18816
1.1881
1.188
1.18788
1.18775
1.18763
1.1875
1.18821
1.18819
1.18823
1.18825
1.18826
1.18826
1.18823
1.18818
1.18811
1.18803
1.18794
1.18785
1.1863
1.18623
1.18621
1.18623
1.18633
1.18653
1.18685
1.18732
1.18793
1.18878
1.18955
1.19077
1.1869
1.18681
1.18675
1.18675
1.1868
1.18694
1.18718
1.18756
1.18802
1.18867
1.18908
1.1895
1.18738
1.18728
1.1872
1.18716
1.18716
1.18724
1.18739
1.18765
1.18799
1.18847
1.18878
1.18897
1.18776
1.18764
1.18754
1.18746
1.18741
1.18741
1.18746
1.1876
1.1878
1.18815
1.1884
1.18866
1.18789
1.18793
1.18778
1.18765
1.18752
1.18736
1.18717
1.18696
1.18675
1.18655
1.18637
1.18621
1.18823
1.18794
1.18798
1.18799
1.18796
1.18788
1.18774
1.18756
1.18737
1.18717
1.18698
1.1868
1.18835
1.18818
1.18819
1.18819
1.18817
1.18812
1.18803
1.18791
1.18775
1.18758
1.18741
1.18724
1.18847
1.18839
1.18838
1.18836
1.18833
1.18828
1.18821
1.18812
1.188
1.18786
1.1877
1.18754
1.18609
1.18601
1.18598
1.186
1.18609
1.18628
1.18658
1.18703
1.18762
1.18844
1.18922
1.1905
1.18666
1.18656
1.18651
1.18651
1.18656
1.18669
1.18692
1.18728
1.18774
1.18837
1.18882
1.18929
1.18709
1.18699
1.18692
1.1869
1.18692
1.187
1.18715
1.1874
1.18773
1.1882
1.18852
1.18873
1.18741
1.18732
1.18725
1.18722
1.18721
1.18723
1.18729
1.18742
1.18759
1.18789
1.18814
1.18837
1.18797
1.18804
1.18787
1.18773
1.18758
1.18742
1.18724
1.18705
1.18686
1.18669
1.18653
1.1864
1.18819
1.18796
1.18801
1.18803
1.18801
1.18794
1.1878
1.18765
1.18748
1.18731
1.18716
1.18701
1.1882
1.18809
1.18815
1.18819
1.18819
1.18816
1.1881
1.188
1.18788
1.18775
1.18762
1.1875
1.18821
1.18819
1.18823
1.18825
1.18826
1.18826
1.18823
1.18818
1.18811
1.18803
1.18794
1.18785
1.1863
1.18623
1.1862
1.18623
1.18633
1.18653
1.18685
1.18732
1.18793
1.18878
1.18955
1.19077
1.1869
1.18681
1.18675
1.18675
1.1868
1.18694
1.18718
1.18756
1.18802
1.18867
1.18908
1.1895
1.18738
1.18728
1.1872
1.18716
1.18716
1.18724
1.18739
1.18765
1.18799
1.18847
1.18878
1.18897
1.18776
1.18764
1.18754
1.18746
1.18741
1.18741
1.18746
1.1876
1.1878
1.18815
1.1884
1.18866
1.18789
1.18793
1.18778
1.18765
1.18752
1.18736
1.18717
1.18696
1.18675
1.18655
1.18637
1.18621
1.18823
1.18794
1.18798
1.18799
1.18796
1.18788
1.18774
1.18756
1.18737
1.18717
1.18698
1.1868
1.18835
1.18818
1.18819
1.18819
1.18817
1.18812
1.18803
1.18791
1.18775
1.18758
1.18741
1.18724
1.18847
1.18839
1.18838
1.18836
1.18833
1.18828
1.18821
1.18812
1.188
1.18786
1.1877
1.18754
1.18609
1.18601
1.18598
1.186
1.18609
1.18628
1.18658
1.18703
1.18762
1.18844
1.18922
1.1905
1.18666
1.18656
1.18651
1.18651
1.18656
1.18669
1.18692
1.18728
1.18774
1.18837
1.18882
1.18929
1.18709
1.18699
1.18692
1.1869
1.18692
1.187
1.18715
1.1874
1.18773
1.1882
1.18852
1.18873
1.18741
1.18732
1.18725
1.18722
1.18721
1.18723
1.18729
1.18742
1.18759
1.18789
1.18814
1.18837
1.18821
1.18825
1.1883
1.18833
1.18836
1.18836
1.18834
1.18831
1.18827
1.18821
1.18815
1.18809
1.18822
1.18829
1.18835
1.1884
1.18844
1.18845
1.18844
1.18842
1.18838
1.18834
1.1883
1.18826
1.18823
1.18832
1.18839
1.18844
1.18848
1.1885
1.18849
1.18847
1.18844
1.18841
1.18838
1.18836
1.18824
1.18833
1.18841
1.18846
1.1885
1.18852
1.18851
1.18849
1.18846
1.18843
1.18841
1.18841
1.18804
1.18796
1.18788
1.18781
1.18777
1.18774
1.18775
1.1878
1.1879
1.1881
1.18824
1.18841
1.18825
1.18819
1.18815
1.18812
1.1881
1.18809
1.18811
1.18815
1.18821
1.18828
1.18832
1.18835
1.18839
1.18836
1.18834
1.18833
1.18832
1.18833
1.18834
1.18835
1.18837
1.18837
1.18834
1.1883
1.18851
1.18847
1.18846
1.18846
1.18846
1.18846
1.18846
1.18845
1.18842
1.18839
1.18832
1.18824
1.18841
1.18839
1.18835
1.18831
1.18825
1.18818
1.1881
1.18801
1.18791
1.18777
1.18764
1.1875
1.1883
1.18824
1.18818
1.18811
1.18803
1.18795
1.18785
1.18775
1.18763
1.18752
1.18742
1.18731
1.18821
1.18813
1.18805
1.18796
1.18788
1.18779
1.18769
1.18759
1.18748
1.18737
1.18728
1.18719
1.18814
1.18805
1.18796
1.18787
1.18778
1.18769
1.18759
1.18749
1.18738
1.18727
1.18718
1.18709
1.18738
1.18731
1.18727
1.18726
1.18728
1.18731
1.18737
1.18746
1.18758
1.18779
1.18796
1.18816
1.18721
1.18715
1.18714
1.18716
1.1872
1.18727
1.18735
1.18747
1.18762
1.18782
1.18799
1.18815
1.1871
1.18705
1.18705
1.18709
1.18715
1.18723
1.18733
1.18747
1.18763
1.18782
1.18799
1.18814
1.18703
1.18699
1.18699
1.18704
1.18711
1.1872
1.18732
1.18746
1.18762
1.1878
1.18798
1.18813
1.1882
1.18825
1.1883
1.18833
1.18835
1.18836
1.18834
1.18831
1.18827
1.18821
1.18815
1.18809
1.18822
1.18829
1.18835
1.1884
1.18844
1.18845
1.18844
1.18842
1.18838
1.18834
1.1883
1.18826
1.18823
1.18832
1.18839
1.18844
1.18848
1.1885
1.18849
1.18847
1.18844
1.18841
1.18838
1.18836
1.18824
1.18833
1.18841
1.18846
1.1885
1.18852
1.18851
1.18849
1.18846
1.18843
1.18841
1.18841
1.18804
1.18796
1.18788
1.18781
1.18777
1.18774
1.18775
1.1878
1.1879
1.1881
1.18824
1.18841
1.18825
1.18819
1.18815
1.18812
1.1881
1.18809
1.18811
1.18815
1.18821
1.18828
1.18832
1.18835
1.18839
1.18836
1.18834
1.18833
1.18832
1.18833
1.18834
1.18835
1.18837
1.18837
1.18834
1.1883
1.18851
1.18847
1.18846
1.18846
1.18846
1.18846
1.18846
1.18845
1.18842
1.18839
1.18832
1.18824
1.18841
1.18839
1.18835
1.18831
1.18825
1.18818
1.1881
1.18801
1.18791
1.18777
1.18764
1.1875
1.1883
1.18824
1.18818
1.18811
1.18803
1.18795
1.18785
1.18775
1.18763
1.18753
1.18742
1.18731
1.18821
1.18813
1.18805
1.18796
1.18788
1.18779
1.18769
1.18759
1.18748
1.18737
1.18728
1.18719
1.18814
1.18805
1.18796
1.18787
1.18778
1.18769
1.18759
1.18749
1.18738
1.18727
1.18718
1.18709
1.18738
1.18731
1.18727
1.18726
1.18728
1.18731
1.18737
1.18746
1.18758
1.18779
1.18796
1.18816
1.18721
1.18715
1.18714
1.18716
1.1872
1.18727
1.18735
1.18747
1.18762
1.18782
1.18799
1.18815
1.1871
1.18705
1.18705
1.18709
1.18715
1.18723
1.18733
1.18747
1.18763
1.18782
1.18799
1.18814
1.18703
1.18699
1.18699
1.18704
1.18711
1.1872
1.18732
1.18746
1.18762
1.1878
1.18798
1.18813
1.18824
1.18834
1.18842
1.18848
1.18851
1.18853
1.18852
1.1885
1.18846
1.18842
1.18838
1.18835
1.18824
1.18834
1.18843
1.18848
1.18852
1.18853
1.18852
1.18849
1.18845
1.1884
1.18834
1.18831
1.18824
1.18835
1.18843
1.18849
1.18852
1.18853
1.18851
1.18848
1.18843
1.18837
1.1883
1.18826
1.18824
1.18835
1.18843
1.18849
1.18852
1.18852
1.1885
1.18846
1.18841
1.18834
1.18827
1.1882
1.18824
1.18835
1.18844
1.18849
1.18852
1.18852
1.18849
1.18844
1.18838
1.18831
1.18822
1.18815
1.18824
1.18835
1.18844
1.18849
1.18852
1.18851
1.18848
1.18842
1.18835
1.18827
1.18818
1.18808
1.18824
1.18836
1.18844
1.18849
1.18851
1.1885
1.18847
1.18841
1.18833
1.18823
1.18813
1.18801
1.18824
1.18836
1.18844
1.18849
1.18851
1.1885
1.18845
1.18839
1.1883
1.18819
1.18807
1.18792
1.18824
1.18836
1.18845
1.1885
1.18851
1.18849
1.18844
1.18837
1.18828
1.18816
1.18802
1.18782
1.18824
1.18837
1.18845
1.1885
1.18851
1.18849
1.18843
1.18835
1.18825
1.18812
1.18795
1.18769
1.18824
1.18837
1.18846
1.1885
1.18851
1.18848
1.18842
1.18834
1.18823
1.18809
1.18788
1.18752
1.18825
1.18838
1.18847
1.18851
1.18851
1.18848
1.18841
1.18832
1.1882
1.18804
1.18779
1.18728
1.18863
1.18856
1.18853
1.18853
1.18853
1.18853
1.18851
1.18848
1.18844
1.18837
1.18828
1.18819
1.18863
1.1886
1.18858
1.18857
1.18857
1.18856
1.18853
1.18848
1.18842
1.18834
1.18824
1.18815
1.18864
1.18861
1.18859
1.18859
1.18858
1.18855
1.18852
1.18846
1.18839
1.1883
1.18821
1.18811
1.18863
1.1886
1.18859
1.18858
1.18856
1.18853
1.18848
1.18842
1.18835
1.18826
1.18817
1.18809
1.18861
1.18858
1.18857
1.18856
1.18853
1.18849
1.18844
1.18838
1.1883
1.18823
1.18815
1.18807
1.18858
1.18855
1.18854
1.18852
1.18849
1.18845
1.18839
1.18833
1.18826
1.18819
1.18812
1.18806
1.18855
1.18851
1.18851
1.18848
1.18845
1.1884
1.18834
1.18828
1.18822
1.18816
1.1881
1.18805
1.18851
1.18847
1.18846
1.18844
1.1884
1.18835
1.18829
1.18823
1.18818
1.18813
1.18808
1.18805
1.18845
1.18842
1.18842
1.18839
1.18835
1.1883
1.18824
1.18819
1.18814
1.1881
1.18807
1.18804
1.18837
1.18836
1.18837
1.18834
1.1883
1.18825
1.18819
1.18814
1.1881
1.18807
1.18805
1.18804
1.18827
1.18829
1.18832
1.18829
1.18825
1.1882
1.18815
1.1881
1.18807
1.18805
1.18803
1.18803
1.18809
1.18816
1.18823
1.18821
1.18817
1.18812
1.18808
1.18804
1.18801
1.188
1.188
1.18801
1.18809
1.18799
1.1879
1.18782
1.18773
1.18764
1.18754
1.18744
1.18733
1.18721
1.18709
1.18691
1.18805
1.18796
1.18787
1.18779
1.1877
1.18762
1.18752
1.18742
1.1873
1.18717
1.18702
1.18672
1.18802
1.18794
1.18786
1.18778
1.1877
1.18762
1.18753
1.18742
1.1873
1.18716
1.187
1.18667
1.18801
1.18793
1.18786
1.18779
1.18772
1.18764
1.18755
1.18744
1.18732
1.18717
1.18701
1.18668
1.188
1.18794
1.18788
1.18781
1.18774
1.18767
1.18758
1.18747
1.18735
1.18719
1.18703
1.1867
1.188
1.18795
1.1879
1.18784
1.18778
1.1877
1.18762
1.18751
1.18739
1.18723
1.18707
1.18674
1.18801
1.18796
1.18792
1.18787
1.18781
1.18774
1.18766
1.18755
1.18743
1.18727
1.18711
1.18677
1.18801
1.18798
1.18794
1.1879
1.18785
1.18778
1.1877
1.1876
1.18748
1.18731
1.18715
1.18681
1.18802
1.18799
1.18797
1.18793
1.18789
1.18782
1.18774
1.18764
1.18752
1.18736
1.18719
1.18685
1.18802
1.18801
1.18799
1.18796
1.18792
1.18786
1.18779
1.18769
1.18757
1.1874
1.18724
1.18689
1.18802
1.18802
1.18801
1.18798
1.18795
1.18789
1.18782
1.18772
1.1876
1.18744
1.18728
1.18693
1.18802
1.18803
1.18803
1.18802
1.18799
1.18795
1.18788
1.18779
1.18768
1.18752
1.18737
1.187
1.187
1.18694
1.18695
1.187
1.18708
1.18718
1.1873
1.18744
1.18761
1.18779
1.18796
1.18812
1.18689
1.18688
1.1869
1.18696
1.18704
1.18715
1.18728
1.18743
1.1876
1.18778
1.18795
1.18811
1.18682
1.18682
1.18685
1.18692
1.18701
1.18713
1.18726
1.18741
1.18758
1.18776
1.18794
1.18811
1.18674
1.18676
1.18679
1.18687
1.18698
1.18711
1.18725
1.1874
1.18757
1.18775
1.18793
1.1881
1.18665
1.18668
1.18674
1.18683
1.18695
1.18708
1.18723
1.18738
1.18756
1.18774
1.18793
1.1881
1.18655
1.1866
1.18668
1.18678
1.18692
1.18706
1.18721
1.18737
1.18754
1.18773
1.18792
1.18809
1.18643
1.18652
1.18661
1.18674
1.18688
1.18704
1.18719
1.18736
1.18753
1.18772
1.18791
1.18809
1.18628
1.18642
1.18655
1.18669
1.18685
1.18702
1.18718
1.18734
1.18752
1.18771
1.1879
1.18808
1.18612
1.18632
1.18648
1.18664
1.18682
1.18699
1.18716
1.18733
1.1875
1.1877
1.1879
1.18808
1.18592
1.18622
1.18641
1.18659
1.18678
1.18697
1.18715
1.18731
1.18749
1.18769
1.18789
1.18808
1.1857
1.18611
1.18633
1.18653
1.18674
1.18696
1.18713
1.1873
1.18748
1.18768
1.18788
1.18808
1.1854
1.18597
1.18624
1.18645
1.1867
1.18694
1.18711
1.18727
1.18745
1.18765
1.18787
1.18808
1.18824
1.18834
1.18842
1.18848
1.18851
1.18853
1.18852
1.1885
1.18846
1.18842
1.18838
1.18835
1.18824
1.18834
1.18843
1.18848
1.18852
1.18853
1.18852
1.18849
1.18845
1.1884
1.18834
1.18831
1.18824
1.18835
1.18843
1.18849
1.18852
1.18853
1.18851
1.18848
1.18843
1.18837
1.1883
1.18826
1.18824
1.18835
1.18843
1.18849
1.18852
1.18852
1.1885
1.18846
1.18841
1.18834
1.18827
1.1882
1.18824
1.18835
1.18844
1.18849
1.18852
1.18852
1.18849
1.18844
1.18838
1.18831
1.18822
1.18815
1.18824
1.18835
1.18844
1.18849
1.18852
1.18851
1.18848
1.18842
1.18835
1.18827
1.18818
1.18808
1.18824
1.18836
1.18844
1.18849
1.18851
1.1885
1.18847
1.18841
1.18833
1.18823
1.18813
1.18801
1.18824
1.18836
1.18844
1.18849
1.18851
1.1885
1.18845
1.18839
1.1883
1.18819
1.18807
1.18792
1.18824
1.18836
1.18845
1.1885
1.18851
1.18849
1.18844
1.18837
1.18827
1.18816
1.18802
1.18782
1.18824
1.18837
1.18845
1.1885
1.18851
1.18849
1.18843
1.18835
1.18825
1.18812
1.18795
1.18769
1.18824
1.18837
1.18846
1.1885
1.18851
1.18848
1.18842
1.18834
1.18823
1.18809
1.18788
1.18752
1.18825
1.18838
1.18847
1.18851
1.18851
1.18848
1.18841
1.18832
1.1882
1.18804
1.18779
1.18728
1.18863
1.18856
1.18853
1.18853
1.18853
1.18853
1.18851
1.18848
1.18844
1.18837
1.18828
1.18819
1.18863
1.1886
1.18858
1.18857
1.18857
1.18856
1.18853
1.18848
1.18842
1.18834
1.18824
1.18815
1.18864
1.18861
1.18859
1.18859
1.18858
1.18855
1.18852
1.18846
1.18839
1.1883
1.18821
1.18811
1.18863
1.1886
1.18859
1.18858
1.18856
1.18853
1.18848
1.18842
1.18835
1.18826
1.18817
1.18809
1.18861
1.18858
1.18857
1.18855
1.18853
1.18849
1.18844
1.18838
1.1883
1.18823
1.18815
1.18807
1.18858
1.18855
1.18854
1.18852
1.18849
1.18845
1.18839
1.18833
1.18826
1.18819
1.18812
1.18806
1.18855
1.18851
1.18851
1.18848
1.18845
1.1884
1.18834
1.18828
1.18822
1.18816
1.1881
1.18805
1.18851
1.18847
1.18846
1.18844
1.1884
1.18835
1.18829
1.18823
1.18818
1.18813
1.18808
1.18805
1.18845
1.18842
1.18842
1.18839
1.18835
1.1883
1.18824
1.18819
1.18814
1.1881
1.18807
1.18804
1.18837
1.18836
1.18837
1.18834
1.1883
1.18825
1.18819
1.18814
1.1881
1.18807
1.18805
1.18804
1.18827
1.18829
1.18832
1.18829
1.18825
1.1882
1.18815
1.1881
1.18807
1.18805
1.18803
1.18803
1.18809
1.18816
1.18823
1.18821
1.18817
1.18812
1.18808
1.18804
1.18801
1.188
1.188
1.18801
1.18808
1.18799
1.1879
1.18782
1.18773
1.18764
1.18754
1.18744
1.18733
1.18721
1.18709
1.18691
1.18805
1.18796
1.18787
1.18779
1.1877
1.18762
1.18752
1.18742
1.1873
1.18717
1.18702
1.18672
1.18802
1.18794
1.18786
1.18778
1.1877
1.18762
1.18753
1.18742
1.1873
1.18716
1.187
1.18667
1.18801
1.18793
1.18786
1.18779
1.18772
1.18764
1.18755
1.18744
1.18732
1.18717
1.18701
1.18668
1.188
1.18794
1.18788
1.18781
1.18774
1.18767
1.18758
1.18747
1.18735
1.18719
1.18703
1.1867
1.188
1.18795
1.1879
1.18784
1.18778
1.1877
1.18762
1.18751
1.18739
1.18723
1.18707
1.18674
1.18801
1.18796
1.18792
1.18787
1.18781
1.18774
1.18766
1.18755
1.18743
1.18727
1.18711
1.18678
1.18801
1.18798
1.18794
1.1879
1.18785
1.18778
1.1877
1.1876
1.18748
1.18731
1.18715
1.18681
1.18802
1.18799
1.18797
1.18793
1.18789
1.18782
1.18774
1.18764
1.18752
1.18736
1.18719
1.18685
1.18802
1.18801
1.18799
1.18796
1.18792
1.18786
1.18779
1.18769
1.18757
1.1874
1.18724
1.18689
1.18802
1.18802
1.18801
1.18798
1.18795
1.18789
1.18782
1.18772
1.1876
1.18744
1.18728
1.18693
1.18802
1.18803
1.18803
1.18802
1.18799
1.18795
1.18788
1.18779
1.18768
1.18752
1.18737
1.187
1.187
1.18694
1.18695
1.187
1.18708
1.18718
1.1873
1.18744
1.18761
1.18779
1.18796
1.18812
1.18689
1.18688
1.1869
1.18696
1.18704
1.18715
1.18728
1.18743
1.1876
1.18778
1.18795
1.18811
1.18682
1.18682
1.18685
1.18692
1.18701
1.18713
1.18726
1.18741
1.18758
1.18776
1.18794
1.18811
1.18674
1.18676
1.1868
1.18687
1.18698
1.18711
1.18725
1.1874
1.18757
1.18775
1.18793
1.1881
1.18665
1.18668
1.18674
1.18683
1.18695
1.18708
1.18723
1.18739
1.18756
1.18774
1.18793
1.1881
1.18655
1.1866
1.18668
1.18679
1.18692
1.18706
1.18721
1.18737
1.18754
1.18773
1.18792
1.18809
1.18643
1.18652
1.18662
1.18674
1.18688
1.18704
1.18719
1.18736
1.18753
1.18772
1.18791
1.18809
1.18629
1.18642
1.18655
1.18669
1.18685
1.18702
1.18718
1.18734
1.18752
1.18771
1.1879
1.18808
1.18612
1.18632
1.18648
1.18664
1.18682
1.187
1.18716
1.18733
1.1875
1.1877
1.1879
1.18808
1.18592
1.18622
1.18641
1.18659
1.18678
1.18697
1.18715
1.18731
1.18749
1.18769
1.18789
1.18808
1.1857
1.18611
1.18633
1.18653
1.18674
1.18696
1.18713
1.1873
1.18748
1.18768
1.18788
1.18808
1.1854
1.18598
1.18624
1.18645
1.1867
1.18694
1.18712
1.18727
1.18745
1.18765
1.18787
1.18808
)
;

boundaryField
{
    rotor
    {
        type            calculated;
        value           nonuniform List<scalar> 
192
(
1.16842
1.16821
1.1681
1.16804
1.16806
1.16825
1.16896
1.17014
1.16974
1.16969
1.16983
1.16977
1.16992
1.1701
1.17043
1.17093
1.1715
1.17207
1.17269
1.17315
1.17346
1.1734
1.17318
1.17253
1.16832
1.16814
1.16804
1.16798
1.16801
1.16813
1.16862
1.16998
1.16955
1.1695
1.16964
1.16961
1.16973
1.1699
1.17018
1.17062
1.17115
1.17165
1.17223
1.17264
1.17291
1.17283
1.17259
1.17196
1.16842
1.16821
1.1681
1.16804
1.16806
1.16825
1.16896
1.17014
1.16974
1.16969
1.16983
1.16977
1.16992
1.1701
1.17043
1.17093
1.1715
1.17207
1.17269
1.17315
1.17346
1.1734
1.17318
1.17253
1.16832
1.16814
1.16804
1.16798
1.16801
1.16813
1.16862
1.16998
1.16955
1.1695
1.16964
1.16961
1.16973
1.1699
1.17019
1.17062
1.17115
1.17165
1.17223
1.17264
1.17291
1.17283
1.17259
1.17196
1.16842
1.17002
1.17116
1.17296
1.17463
1.17645
1.17824
1.17998
1.18188
1.18362
1.18503
1.18506
1.17196
1.17312
1.17354
1.17442
1.17588
1.17781
1.1802
1.18296
1.1861
1.18919
1.19201
1.19414
1.16832
1.16993
1.17103
1.1728
1.17442
1.17625
1.17804
1.1798
1.18171
1.18342
1.18483
1.18491
1.17253
1.17365
1.174
1.17485
1.17631
1.17826
1.18069
1.18351
1.18672
1.18984
1.19264
1.19467
1.16842
1.17002
1.17116
1.17296
1.17463
1.17645
1.17824
1.17998
1.18188
1.18362
1.18503
1.18506
1.17196
1.17312
1.17354
1.17442
1.17588
1.17781
1.1802
1.18296
1.1861
1.18919
1.19201
1.19414
1.16832
1.16993
1.17103
1.1728
1.17442
1.17625
1.17804
1.1798
1.18171
1.18342
1.18483
1.18491
1.17253
1.17365
1.174
1.17485
1.17631
1.17826
1.18069
1.18351
1.18672
1.18984
1.19264
1.19467
)
;
    }
    stator
    {
        type            calculated;
        value           nonuniform List<scalar> 
192
(
1.18825
1.18838
1.18847
1.18851
1.18851
1.18848
1.18841
1.18832
1.1882
1.18804
1.18779
1.18728
1.18809
1.18816
1.18823
1.18821
1.18817
1.18812
1.18808
1.18804
1.18801
1.188
1.188
1.18801
1.18802
1.18803
1.18803
1.18802
1.18799
1.18795
1.18788
1.18779
1.18768
1.18752
1.18737
1.187
1.1854
1.18597
1.18624
1.18645
1.1867
1.18694
1.18711
1.18727
1.18745
1.18765
1.18787
1.18808
1.18825
1.18838
1.18847
1.18851
1.18851
1.18848
1.18841
1.18832
1.1882
1.18804
1.18779
1.18728
1.18809
1.18816
1.18823
1.18821
1.18817
1.18812
1.18808
1.18804
1.18801
1.188
1.188
1.18801
1.18802
1.18803
1.18803
1.18802
1.18799
1.18795
1.18788
1.18779
1.18768
1.18752
1.18737
1.187
1.1854
1.18598
1.18624
1.18645
1.1867
1.18694
1.18712
1.18727
1.18745
1.18765
1.18787
1.18808
1.18863
1.18863
1.18864
1.18863
1.18861
1.18858
1.18855
1.18851
1.18845
1.18837
1.18827
1.18809
1.18835
1.18831
1.18826
1.1882
1.18815
1.18808
1.18801
1.18792
1.18782
1.18769
1.18752
1.18728
1.187
1.18689
1.18682
1.18674
1.18665
1.18655
1.18643
1.18628
1.18612
1.18592
1.1857
1.1854
1.18691
1.18672
1.18667
1.18668
1.1867
1.18674
1.18677
1.18681
1.18685
1.18689
1.18693
1.187
1.18863
1.18863
1.18864
1.18863
1.18861
1.18858
1.18855
1.18851
1.18845
1.18837
1.18827
1.18809
1.18835
1.18831
1.18826
1.1882
1.18815
1.18808
1.18801
1.18792
1.18782
1.18769
1.18752
1.18728
1.187
1.18689
1.18682
1.18674
1.18665
1.18655
1.18643
1.18629
1.18612
1.18592
1.1857
1.1854
1.18691
1.18672
1.18667
1.18668
1.1867
1.18674
1.18678
1.18681
1.18685
1.18689
1.18693
1.187
)
;
    }
    front
    {
        type            empty;
    }
    back
    {
        type            empty;
    }
}


// ************************************************************************* //
