/*--------------------------------*- C++ -*----------------------------------*\
| =========                 |                                                 |
| \\      /  F ield         | OpenFOAM: The Open Source CFD Toolbox           |
|  \\    /   O peration     | Version:  2212                                  |
|   \\  /    A nd           | Website:  www.openfoam.com                      |
|    \\/     M anipulation  |                                                 |
\*---------------------------------------------------------------------------*/
FoamFile
{
    version     2.0;
    format      ascii;
    arch        "LSB;label=32;scalar=64";
    class       volScalarField;
    location    "0.06";
    object      tracer0;
}
// * * * * * * * * * * * * * * * * * * * * * * * * * * * * * * * * * * * * * //

dimensions      [0 0 0 0 0 0 0];

internalField   nonuniform List<scalar> 
3072
(
2.17402e-05
2.17245e-05
2.16808e-05
2.15965e-05
2.15112e-05
2.14528e-05
2.16031e-05
2.32602e-05
2.46777e-05
2.47926e-05
2.48189e-05
2.48385e-05
2.2056e-05
2.20022e-05
2.18221e-05
2.16081e-05
2.17261e-05
2.249e-05
2.37804e-05
2.43419e-05
2.45404e-05
2.43908e-05
2.40542e-05
2.36834e-05
2.21925e-05
2.21135e-05
2.18156e-05
2.2011e-05
2.29552e-05
2.37898e-05
2.40732e-05
2.41493e-05
2.38048e-05
2.27898e-05
2.13688e-05
2.00251e-05
2.23336e-05
2.24072e-05
2.24034e-05
2.2997e-05
2.36012e-05
2.38013e-05
2.38401e-05
2.32378e-05
2.14521e-05
1.8981e-05
1.71251e-05
1.55441e-05
2.24167e-05
2.27897e-05
2.29598e-05
2.34121e-05
2.3593e-05
2.36329e-05
2.3097e-05
2.12132e-05
1.853e-05
1.61289e-05
1.43247e-05
1.27902e-05
2.24593e-05
2.29503e-05
2.3182e-05
2.34273e-05
2.34993e-05
2.32313e-05
2.18217e-05
1.91696e-05
1.63516e-05
1.41462e-05
1.24758e-05
1.11906e-05
2.24776e-05
2.29961e-05
2.32403e-05
2.33601e-05
2.3272e-05
2.25097e-05
2.05376e-05
1.79655e-05
1.55466e-05
1.3663e-05
1.21962e-05
1.10512e-05
2.25395e-05
2.30284e-05
2.31921e-05
2.32508e-05
2.30015e-05
2.20707e-05
2.04085e-05
1.80883e-05
1.5817e-05
1.40119e-05
1.26026e-05
1.14865e-05
2.4652e-05
2.47858e-05
2.31612e-05
2.30224e-05
2.27992e-05
2.21152e-05
2.06995e-05
1.87519e-05
1.677e-05
1.51046e-05
1.38062e-05
1.27447e-05
2.80798e-05
2.6882e-05
2.49577e-05
2.30853e-05
2.28349e-05
2.23746e-05
2.14285e-05
2.02225e-05
1.89261e-05
1.75643e-05
1.65469e-05
1.55603e-05
2.99949e-05
3.13656e-05
3.05886e-05
2.58859e-05
2.41887e-05
2.3466e-05
2.2897e-05
2.21433e-05
2.13376e-05
2.04552e-05
1.96824e-05
1.90776e-05
3.40213e-05
3.46969e-05
3.64998e-05
3.54873e-05
3.33808e-05
3.15294e-05
3.00928e-05
2.89717e-05
2.79744e-05
2.72334e-05
2.65316e-05
2.60806e-05
2.48608e-05
2.48853e-05
2.49123e-05
2.49577e-05
2.50022e-05
2.5077e-05
2.51695e-05
2.52726e-05
2.53684e-05
2.54286e-05
2.54571e-05
2.54517e-05
2.32813e-05
2.29845e-05
2.2819e-05
2.28373e-05
2.30165e-05
2.33408e-05
2.38062e-05
2.43677e-05
2.49453e-05
2.53453e-05
2.55418e-05
2.56196e-05
1.88979e-05
1.82045e-05
1.78073e-05
1.78099e-05
1.81087e-05
1.88299e-05
1.99029e-05
2.13553e-05
2.30757e-05
2.46306e-05
2.53896e-05
2.56777e-05
1.43743e-05
1.36309e-05
1.32368e-05
1.32145e-05
1.35247e-05
1.42581e-05
1.54851e-05
1.73764e-05
1.99678e-05
2.31529e-05
2.50263e-05
2.57227e-05
1.18326e-05
1.12033e-05
1.09724e-05
1.09586e-05
1.13517e-05
1.20645e-05
1.32592e-05
1.50633e-05
1.76144e-05
2.12996e-05
2.4541e-05
2.57734e-05
1.04627e-05
1.00229e-05
9.86935e-06
9.87454e-06
1.02784e-05
1.09987e-05
1.21557e-05
1.39455e-05
1.64787e-05
2.03445e-05
2.41877e-05
2.58246e-05
1.03388e-05
9.85109e-06
9.52135e-06
9.57671e-06
9.9281e-06
1.06424e-05
1.17721e-05
1.35407e-05
1.60397e-05
1.99229e-05
2.39748e-05
2.58778e-05
1.07627e-05
1.02854e-05
1.00516e-05
1.01683e-05
1.04722e-05
1.10585e-05
1.20958e-05
1.37598e-05
1.60713e-05
1.98959e-05
2.39271e-05
2.59312e-05
1.20642e-05
1.15508e-05
1.14881e-05
1.17027e-05
1.21112e-05
1.28163e-05
1.39562e-05
1.56756e-05
1.80701e-05
2.14919e-05
2.46364e-05
2.60468e-05
1.50258e-05
1.45157e-05
1.45374e-05
1.48311e-05
1.52953e-05
1.60244e-05
1.70869e-05
1.86273e-05
2.07319e-05
2.33356e-05
2.53375e-05
2.61991e-05
1.86148e-05
1.84803e-05
1.86874e-05
1.91637e-05
1.98186e-05
2.07159e-05
2.18827e-05
2.33162e-05
2.48436e-05
2.57679e-05
2.62663e-05
2.63661e-05
2.569e-05
2.55535e-05
2.56636e-05
2.58925e-05
2.61661e-05
2.64166e-05
2.65961e-05
2.66801e-05
2.66938e-05
2.66129e-05
2.65522e-05
2.64264e-05
2.07638e-05
2.07615e-05
2.07497e-05
2.07209e-05
2.06879e-05
2.0647e-05
2.06366e-05
2.07229e-05
2.08742e-05
2.08824e-05
2.08827e-05
2.08856e-05
2.08564e-05
2.08518e-05
2.08253e-05
2.07576e-05
2.06904e-05
2.07241e-05
2.07577e-05
2.07839e-05
2.07945e-05
2.06613e-05
2.04688e-05
2.0236e-05
2.08754e-05
2.08639e-05
2.08111e-05
2.07411e-05
2.073e-05
2.07331e-05
2.07254e-05
2.06479e-05
2.03956e-05
1.98439e-05
1.90749e-05
1.82911e-05
2.08796e-05
2.0852e-05
2.07763e-05
2.07382e-05
2.07214e-05
2.06864e-05
2.0549e-05
2.01407e-05
1.9167e-05
1.78929e-05
1.6746e-05
1.58078e-05
2.08803e-05
2.08445e-05
2.07634e-05
2.07267e-05
2.06801e-05
2.05436e-05
2.01311e-05
1.91391e-05
1.77253e-05
1.62262e-05
1.49281e-05
1.38059e-05
2.08815e-05
2.0845e-05
2.07535e-05
2.06988e-05
2.0591e-05
2.02731e-05
1.93963e-05
1.79552e-05
1.62885e-05
1.47204e-05
1.34248e-05
1.23663e-05
2.08813e-05
2.08445e-05
2.07358e-05
2.06354e-05
2.03915e-05
1.97874e-05
1.87248e-05
1.73176e-05
1.58027e-05
1.44063e-05
1.32464e-05
1.22872e-05
2.08812e-05
2.0843e-05
2.07106e-05
2.05473e-05
2.02567e-05
1.96789e-05
1.87315e-05
1.74208e-05
1.60109e-05
1.46957e-05
1.35931e-05
1.26834e-05
2.08813e-05
2.085e-05
2.07197e-05
2.05537e-05
2.02825e-05
1.97752e-05
1.89778e-05
1.79007e-05
1.67226e-05
1.55854e-05
1.46086e-05
1.38023e-05
2.08831e-05
2.08764e-05
2.0774e-05
2.06315e-05
2.04416e-05
2.01287e-05
1.96687e-05
1.90592e-05
1.83562e-05
1.76026e-05
1.69318e-05
1.62987e-05
2.08789e-05
2.08921e-05
2.08606e-05
2.07935e-05
2.07109e-05
2.0585e-05
2.04194e-05
2.01784e-05
1.99178e-05
1.95903e-05
1.9315e-05
1.90043e-05
2.10436e-05
2.10896e-05
2.11433e-05
2.11684e-05
2.11726e-05
2.11504e-05
2.10883e-05
2.10027e-05
2.08817e-05
2.07673e-05
2.06255e-05
2.05435e-05
2.08899e-05
2.08968e-05
2.09061e-05
2.09205e-05
2.09472e-05
2.09842e-05
2.10383e-05
2.10976e-05
2.11594e-05
2.1205e-05
2.1228e-05
2.12356e-05
1.998e-05
1.97871e-05
1.96668e-05
1.96663e-05
1.97591e-05
1.99286e-05
2.01761e-05
2.04842e-05
2.08073e-05
2.10897e-05
2.1233e-05
2.12845e-05
1.76645e-05
1.725e-05
1.70319e-05
1.70255e-05
1.71912e-05
1.75777e-05
1.8133e-05
1.88809e-05
1.97139e-05
2.05759e-05
2.1123e-05
2.1325e-05
1.50116e-05
1.4504e-05
1.42203e-05
1.4207e-05
1.44595e-05
1.50254e-05
1.58714e-05
1.69936e-05
1.83032e-05
1.96288e-05
2.08636e-05
2.13513e-05
1.2929e-05
1.23745e-05
1.21107e-05
1.20827e-05
1.24071e-05
1.30648e-05
1.41096e-05
1.55224e-05
1.72401e-05
1.8856e-05
2.05224e-05
2.1389e-05
1.16281e-05
1.1208e-05
1.10416e-05
1.10319e-05
1.1392e-05
1.20822e-05
1.3173e-05
1.46455e-05
1.65942e-05
1.84636e-05
2.02406e-05
2.14239e-05
1.15669e-05
1.11041e-05
1.07656e-05
1.07541e-05
1.10505e-05
1.17356e-05
1.28378e-05
1.43236e-05
1.63346e-05
1.82901e-05
2.01044e-05
2.14642e-05
1.19814e-05
1.15336e-05
1.12675e-05
1.13656e-05
1.16405e-05
1.21829e-05
1.31687e-05
1.4518e-05
1.6431e-05
1.82876e-05
2.00701e-05
2.15028e-05
1.31993e-05
1.27563e-05
1.26735e-05
1.28684e-05
1.32298e-05
1.3835e-05
1.47997e-05
1.60794e-05
1.76911e-05
1.90664e-05
2.03999e-05
2.15798e-05
1.59259e-05
1.55694e-05
1.55956e-05
1.58165e-05
1.61394e-05
1.66068e-05
1.72435e-05
1.80538e-05
1.89837e-05
1.97335e-05
2.07649e-05
2.17152e-05
1.8828e-05
1.86455e-05
1.86574e-05
1.87749e-05
1.89824e-05
1.92437e-05
1.95706e-05
1.99567e-05
2.04456e-05
2.09973e-05
2.16388e-05
2.19386e-05
2.04564e-05
2.04675e-05
2.0561e-05
2.07276e-05
2.09239e-05
2.11488e-05
2.13949e-05
2.16541e-05
2.19018e-05
2.20376e-05
2.21041e-05
2.20433e-05
2.66979e-05
2.67599e-05
2.69836e-05
2.73663e-05
2.76248e-05
2.79064e-05
2.75015e-05
2.2678e-05
1.87296e-05
1.84259e-05
1.84196e-05
1.8427e-05
2.57613e-05
2.62516e-05
2.71121e-05
2.78235e-05
2.73683e-05
2.55372e-05
2.12671e-05
1.91022e-05
1.81981e-05
1.79418e-05
1.75589e-05
1.71048e-05
2.53752e-05
2.63253e-05
2.75145e-05
2.69132e-05
2.46027e-05
2.07181e-05
1.89379e-05
1.80236e-05
1.71185e-05
1.61889e-05
1.448e-05
1.33965e-05
2.49404e-05
2.58523e-05
2.60245e-05
2.41822e-05
2.10378e-05
1.86698e-05
1.75876e-05
1.62455e-05
1.46204e-05
1.26258e-05
1.10024e-05
9.83542e-06
2.41685e-05
2.4144e-05
2.3729e-05
2.1463e-05
1.8908e-05
1.73072e-05
1.61627e-05
1.43408e-05
1.22925e-05
1.02752e-05
8.83333e-06
7.69573e-06
2.38383e-05
2.30526e-05
2.20209e-05
1.96471e-05
1.76882e-05
1.64319e-05
1.4977e-05
1.26939e-05
1.05532e-05
8.68331e-06
7.42759e-06
6.44216e-06
2.35244e-05
2.20787e-05
2.06074e-05
1.85029e-05
1.69342e-05
1.5633e-05
1.38929e-05
1.17704e-05
9.91516e-06
8.31637e-06
7.21035e-06
6.33058e-06
2.29771e-05
2.11708e-05
1.97912e-05
1.77589e-05
1.6398e-05
1.52857e-05
1.38368e-05
1.1884e-05
1.0135e-05
8.6089e-06
7.52378e-06
6.66832e-06
2.27828e-05
2.07146e-05
1.89696e-05
1.72257e-05
1.62977e-05
1.53656e-05
1.41095e-05
1.24476e-05
1.09131e-05
9.51896e-06
8.47931e-06
7.65461e-06
2.23955e-05
1.99932e-05
1.87064e-05
1.72851e-05
1.64529e-05
1.57095e-05
1.4855e-05
1.3753e-05
1.26977e-05
1.15851e-05
1.0727e-05
9.9213e-06
2.2407e-05
2.02548e-05
1.91923e-05
1.80157e-05
1.72458e-05
1.66273e-05
1.61021e-05
1.53828e-05
1.47047e-05
1.40057e-05
1.34197e-05
1.29317e-05
2.25873e-05
2.20114e-05
2.15229e-05
2.10026e-05
2.04488e-05
1.98723e-05
1.93116e-05
1.88612e-05
1.83561e-05
1.79734e-05
1.75419e-05
1.7307e-05
1.84348e-05
1.84457e-05
1.84604e-05
1.84835e-05
1.85322e-05
1.86018e-05
1.8705e-05
1.88183e-05
1.89413e-05
1.90296e-05
1.90768e-05
1.90954e-05
1.66283e-05
1.62621e-05
1.60547e-05
1.6054e-05
1.62107e-05
1.65101e-05
1.69602e-05
1.75376e-05
1.81781e-05
1.87376e-05
1.90208e-05
1.91238e-05
1.22875e-05
1.18132e-05
1.14411e-05
1.14473e-05
1.16587e-05
1.22388e-05
1.30961e-05
1.43535e-05
1.58932e-05
1.76503e-05
1.87375e-05
1.91327e-05
8.83835e-06
8.36443e-06
8.02756e-06
8.01198e-06
8.25929e-06
8.82694e-06
9.76089e-06
1.11583e-05
1.31565e-05
1.5678e-05
1.82053e-05
1.91558e-05
6.90251e-06
6.47966e-06
6.27064e-06
6.26028e-06
6.5732e-06
7.13894e-06
8.08948e-06
9.48799e-06
1.14974e-05
1.41042e-05
1.74918e-05
1.91835e-05
5.85368e-06
5.52714e-06
5.40384e-06
5.40804e-06
5.72578e-06
6.29529e-06
7.22046e-06
8.57482e-06
1.0662e-05
1.33425e-05
1.69027e-05
1.92227e-05
5.76021e-06
5.38789e-06
5.131e-06
5.17432e-06
5.44977e-06
6.01217e-06
6.92582e-06
8.25262e-06
1.03373e-05
1.30139e-05
1.66096e-05
1.926e-05
6.09466e-06
5.72474e-06
5.54385e-06
5.63617e-06
5.87671e-06
6.34203e-06
7.19317e-06
8.41595e-06
1.03946e-05
1.29926e-05
1.65278e-05
1.92995e-05
7.12152e-06
6.71873e-06
6.67385e-06
6.84585e-06
7.17249e-06
7.73325e-06
8.64759e-06
9.94711e-06
1.19128e-05
1.41553e-05
1.71031e-05
1.94173e-05
9.48393e-06
9.08494e-06
9.10973e-06
9.34791e-06
9.71608e-06
1.02813e-05
1.10881e-05
1.22666e-05
1.38317e-05
1.55695e-05
1.79215e-05
1.9634e-05
1.2588e-05
1.24277e-05
1.25386e-05
1.28479e-05
1.32695e-05
1.38526e-05
1.46452e-05
1.57238e-05
1.69715e-05
1.83295e-05
1.9414e-05
1.99377e-05
1.70564e-05
1.70861e-05
1.72914e-05
1.7633e-05
1.80304e-05
1.84764e-05
1.89238e-05
1.93446e-05
1.96911e-05
1.99013e-05
2.00822e-05
2.00631e-05
2.32819e-05
2.3268e-05
2.32274e-05
2.31355e-05
2.30504e-05
2.29711e-05
2.30747e-05
2.43254e-05
2.66068e-05
2.68135e-05
2.68445e-05
2.68666e-05
2.36271e-05
2.35756e-05
2.33936e-05
2.31434e-05
2.3165e-05
2.37989e-05
2.54178e-05
2.61651e-05
2.64708e-05
2.63306e-05
2.58288e-05
2.53011e-05
2.37767e-05
2.36993e-05
2.33597e-05
2.34508e-05
2.43179e-05
2.54655e-05
2.58568e-05
2.59604e-05
2.55862e-05
2.42293e-05
2.21354e-05
2.05313e-05
2.3921e-05
2.39575e-05
2.39168e-05
2.44203e-05
2.52501e-05
2.55395e-05
2.55961e-05
2.48998e-05
2.27134e-05
1.95618e-05
1.74632e-05
1.56117e-05
2.40313e-05
2.43731e-05
2.45071e-05
2.50449e-05
2.52939e-05
2.53549e-05
2.47638e-05
2.2534e-05
1.93128e-05
1.64495e-05
1.44867e-05
1.26572e-05
2.40882e-05
2.45796e-05
2.48141e-05
2.5105e-05
2.51918e-05
2.48956e-05
2.32671e-05
2.01695e-05
1.68297e-05
1.42951e-05
1.24504e-05
1.08908e-05
2.41267e-05
2.46645e-05
2.49056e-05
2.50343e-05
2.4943e-05
2.406e-05
2.17679e-05
1.87456e-05
1.59349e-05
1.38102e-05
1.21981e-05
1.0825e-05
2.41698e-05
2.46717e-05
2.4852e-05
2.48854e-05
2.45841e-05
2.34693e-05
2.15368e-05
1.88719e-05
1.62431e-05
1.42043e-05
1.26616e-05
1.13425e-05
2.41651e-05
2.46213e-05
2.47252e-05
2.46888e-05
2.43314e-05
2.35016e-05
2.18542e-05
1.96219e-05
1.73394e-05
1.5441e-05
1.4011e-05
1.28018e-05
2.41578e-05
2.45207e-05
2.45746e-05
2.45316e-05
2.43138e-05
2.38282e-05
2.28367e-05
2.14639e-05
1.99029e-05
1.83046e-05
1.70336e-05
1.59238e-05
2.40941e-05
2.43548e-05
2.4358e-05
2.43228e-05
2.42501e-05
2.41015e-05
2.38711e-05
2.3389e-05
2.28735e-05
2.21142e-05
2.14842e-05
2.07876e-05
2.37926e-05
2.38508e-05
2.37868e-05
2.37411e-05
2.37279e-05
2.37104e-05
2.36567e-05
2.35574e-05
2.34504e-05
2.33094e-05
2.31229e-05
2.29436e-05
2.68905e-05
2.69174e-05
2.69483e-05
2.69934e-05
2.70623e-05
2.71606e-05
2.72997e-05
2.74584e-05
2.7617e-05
2.77308e-05
2.77863e-05
2.78e-05
2.46662e-05
2.41969e-05
2.38792e-05
2.38703e-05
2.40616e-05
2.44735e-05
2.50758e-05
2.58865e-05
2.67499e-05
2.74805e-05
2.78304e-05
2.79619e-05
1.89393e-05
1.81831e-05
1.76013e-05
1.75714e-05
1.78034e-05
1.85756e-05
1.96981e-05
2.14737e-05
2.36586e-05
2.61693e-05
2.7504e-05
2.80182e-05
1.42471e-05
1.34394e-05
1.29423e-05
1.28903e-05
1.3129e-05
1.39196e-05
1.51261e-05
1.69808e-05
1.96171e-05
2.35151e-05
2.68231e-05
2.80727e-05
1.15741e-05
1.08166e-05
1.05117e-05
1.04709e-05
1.08094e-05
1.15816e-05
1.28796e-05
1.47724e-05
1.72272e-05
2.1179e-05
2.59091e-05
2.81362e-05
1.0079e-05
9.52208e-06
9.31682e-06
9.29541e-06
9.65789e-06
1.03898e-05
1.16033e-05
1.36328e-05
1.60233e-05
2.00296e-05
2.51231e-05
2.82081e-05
1.00155e-05
9.43371e-06
9.03485e-06
9.00225e-06
9.30084e-06
1.00083e-05
1.11662e-05
1.32128e-05
1.55614e-05
1.95292e-05
2.47143e-05
2.82828e-05
1.04994e-05
9.9461e-06
9.592e-06
9.68159e-06
9.95381e-06
1.0523e-05
1.15204e-05
1.34873e-05
1.55793e-05
1.94809e-05
2.45908e-05
2.8357e-05
1.19573e-05
1.1397e-05
1.1174e-05
1.13637e-05
1.17404e-05
1.24299e-05
1.3553e-05
1.56058e-05
1.75042e-05
2.11332e-05
2.49973e-05
2.8441e-05
1.52184e-05
1.46211e-05
1.45377e-05
1.48093e-05
1.52916e-05
1.60435e-05
1.71067e-05
1.87623e-05
1.98691e-05
2.23348e-05
2.40694e-05
2.7283e-05
2.03466e-05
1.99277e-05
1.98229e-05
1.99802e-05
2.0264e-05
2.0574e-05
2.08842e-05
2.12121e-05
2.13599e-05
2.24036e-05
2.36991e-05
2.67484e-05
2.27576e-05
2.26304e-05
2.2502e-05
2.24053e-05
2.22667e-05
2.21684e-05
2.20146e-05
2.191e-05
2.16825e-05
2.23327e-05
2.32042e-05
2.5954e-05
2.53264e-05
2.63355e-05
2.88544e-05
2.93038e-05
2.97081e-05
2.99501e-05
2.98724e-05
2.97214e-05
2.95771e-05
2.94272e-05
2.92428e-05
2.90544e-05
2.1833e-05
2.2302e-05
2.40974e-05
2.43461e-05
2.45865e-05
2.4826e-05
2.51489e-05
2.54534e-05
2.57082e-05
2.58855e-05
2.59896e-05
2.59495e-05
1.65276e-05
1.8145e-05
1.84442e-05
1.87127e-05
1.89606e-05
1.91926e-05
1.94082e-05
1.96079e-05
1.97756e-05
1.99044e-05
1.99733e-05
1.99322e-05
1.29591e-05
1.31552e-05
1.33174e-05
1.35179e-05
1.36761e-05
1.38776e-05
1.40294e-05
1.42166e-05
1.43287e-05
1.44474e-05
1.44309e-05
1.43163e-05
2.89039e-05
2.87474e-05
2.85638e-05
2.83447e-05
2.80969e-05
2.78103e-05
2.74987e-05
2.71592e-05
2.68173e-05
2.64998e-05
2.6222e-05
2.62347e-05
2.58214e-05
2.56141e-05
2.53272e-05
2.49642e-05
2.45336e-05
2.40651e-05
2.35712e-05
2.30695e-05
2.25997e-05
2.22957e-05
2.20349e-05
2.26957e-05
1.9804e-05
1.9584e-05
1.92774e-05
1.88983e-05
1.84691e-05
1.80176e-05
1.75439e-05
1.71078e-05
1.67797e-05
1.66421e-05
1.64641e-05
1.69143e-05
1.40846e-05
1.37582e-05
1.33887e-05
1.30228e-05
1.271e-05
1.24508e-05
1.22763e-05
1.21772e-05
1.21226e-05
1.21546e-05
1.21223e-05
1.2349e-05
2.60422e-05
2.55298e-05
2.52868e-05
2.50714e-05
2.48155e-05
2.45562e-05
2.42754e-05
2.40284e-05
2.37905e-05
2.36021e-05
2.34372e-05
2.33078e-05
2.33558e-05
2.36449e-05
2.37706e-05
2.38442e-05
2.38472e-05
2.38227e-05
2.37767e-05
2.37146e-05
2.36398e-05
2.35584e-05
2.34742e-05
2.33811e-05
1.73972e-05
1.78701e-05
1.82757e-05
1.86092e-05
1.88861e-05
1.91179e-05
1.93136e-05
1.94705e-05
1.95839e-05
1.96448e-05
1.96112e-05
1.95176e-05
1.26091e-05
1.28989e-05
1.31409e-05
1.33961e-05
1.35865e-05
1.37854e-05
1.39104e-05
1.40325e-05
1.40578e-05
1.39979e-05
1.38443e-05
1.36083e-05
2.32021e-05
2.31256e-05
2.30597e-05
2.29822e-05
2.29129e-05
2.28232e-05
2.2738e-05
2.2623e-05
2.25155e-05
2.2383e-05
2.22917e-05
2.21837e-05
2.32662e-05
2.3127e-05
2.29591e-05
2.27583e-05
2.25309e-05
2.22732e-05
2.19826e-05
2.16689e-05
2.13537e-05
2.10945e-05
2.08898e-05
2.11194e-05
1.93734e-05
1.91739e-05
1.89151e-05
1.85981e-05
1.82316e-05
1.7797e-05
1.7298e-05
1.68118e-05
1.64079e-05
1.61902e-05
1.59602e-05
1.63709e-05
1.33082e-05
1.29678e-05
1.26113e-05
1.22746e-05
1.19849e-05
1.17731e-05
1.16617e-05
1.16193e-05
1.1598e-05
1.16399e-05
1.15972e-05
1.17534e-05
2.22162e-05
2.21768e-05
2.21406e-05
2.20886e-05
2.19988e-05
2.18892e-05
2.17383e-05
2.15817e-05
2.14069e-05
2.12418e-05
2.10876e-05
2.09571e-05
2.11872e-05
2.12631e-05
2.13032e-05
2.13272e-05
2.13405e-05
2.13385e-05
2.13242e-05
2.12983e-05
2.12602e-05
2.12142e-05
2.1165e-05
2.11136e-05
1.67594e-05
1.71112e-05
1.73898e-05
1.76534e-05
1.78581e-05
1.80712e-05
1.82281e-05
1.83956e-05
1.84916e-05
1.85862e-05
1.85746e-05
1.84995e-05
1.19131e-05
1.21147e-05
1.22736e-05
1.2474e-05
1.26278e-05
1.28256e-05
1.29712e-05
1.31517e-05
1.32578e-05
1.33707e-05
1.33556e-05
1.325e-05
2.08691e-05
2.08185e-05
2.07748e-05
2.07252e-05
2.06827e-05
2.06296e-05
2.05785e-05
2.05091e-05
2.04428e-05
2.03641e-05
2.03163e-05
2.0261e-05
2.10409e-05
2.09435e-05
2.08193e-05
2.06687e-05
2.04931e-05
2.02897e-05
2.00603e-05
1.98153e-05
1.95761e-05
1.93988e-05
1.9258e-05
1.94756e-05
1.83651e-05
1.8167e-05
1.79071e-05
1.75934e-05
1.72404e-05
1.68641e-05
1.64547e-05
1.60731e-05
1.57806e-05
1.56508e-05
1.54686e-05
1.58791e-05
1.30371e-05
1.2738e-05
1.23995e-05
1.2063e-05
1.17732e-05
1.1535e-05
1.13813e-05
1.12954e-05
1.12472e-05
1.12798e-05
1.12485e-05
1.1465e-05
2.03813e-05
2.07026e-05
2.08346e-05
2.09464e-05
2.10755e-05
2.12239e-05
2.13938e-05
2.15596e-05
2.17219e-05
2.18221e-05
2.1903e-05
2.19142e-05
1.95517e-05
1.9654e-05
1.97286e-05
1.97971e-05
1.98438e-05
1.99076e-05
1.99523e-05
2.00115e-05
2.00466e-05
2.00884e-05
2.00935e-05
2.00697e-05
1.63072e-05
1.66015e-05
1.68396e-05
1.70101e-05
1.71537e-05
1.725e-05
1.73409e-05
1.73935e-05
1.74414e-05
1.74347e-05
1.73935e-05
1.73148e-05
1.17092e-05
1.19804e-05
1.21937e-05
1.24227e-05
1.25808e-05
1.27548e-05
1.28499e-05
1.29545e-05
1.29604e-05
1.29016e-05
1.27687e-05
1.25709e-05
2.18827e-05
2.18207e-05
2.17329e-05
2.16182e-05
2.14846e-05
2.13284e-05
2.11481e-05
2.09418e-05
2.06613e-05
2.11229e-05
2.17105e-05
2.29704e-05
2.0017e-05
1.99314e-05
1.98096e-05
1.96491e-05
1.94499e-05
1.92119e-05
1.89473e-05
1.86703e-05
1.8401e-05
1.85742e-05
1.94696e-05
2.00419e-05
1.71974e-05
1.70375e-05
1.68327e-05
1.65842e-05
1.62922e-05
1.5906e-05
1.55023e-05
1.51103e-05
1.47678e-05
1.45143e-05
1.4724e-05
1.60872e-05
1.23323e-05
1.20772e-05
1.18328e-05
1.16064e-05
1.14184e-05
1.13434e-05
1.13232e-05
1.13639e-05
1.13827e-05
1.14369e-05
1.13867e-05
1.17399e-05
1.25472e-05
1.24572e-05
1.22007e-05
1.18396e-05
1.13009e-05
1.06314e-05
9.78614e-06
8.87422e-06
7.91715e-06
7.09715e-06
6.48672e-06
6.28828e-06
1.14684e-05
1.09497e-05
1.03166e-05
9.53431e-06
8.59061e-06
7.55133e-06
6.45958e-06
5.45651e-06
4.61033e-06
4.04804e-06
3.77177e-06
3.8153e-06
1.00829e-05
9.4342e-06
8.58117e-06
7.62719e-06
6.56336e-06
5.48327e-06
4.4541e-06
3.592e-06
2.93474e-06
2.53825e-06
2.41801e-06
2.50818e-06
8.84493e-06
8.12762e-06
7.18085e-06
6.20085e-06
5.15056e-06
4.14127e-06
3.22561e-06
2.48213e-06
1.9143e-06
1.54087e-06
1.41576e-06
1.49111e-06
6.30996e-06
6.61008e-06
7.17255e-06
7.85974e-06
8.65238e-06
9.49425e-06
1.01237e-05
1.05634e-05
1.08491e-05
1.10127e-05
1.10127e-05
1.08063e-05
4.13675e-06
4.74202e-06
5.36426e-06
6.12101e-06
6.81002e-06
7.36743e-06
7.81539e-06
8.14998e-06
8.35776e-06
8.31762e-06
7.73938e-06
6.93259e-06
2.94318e-06
3.48024e-06
3.96533e-06
4.4677e-06
4.85638e-06
5.16102e-06
5.39525e-06
5.49998e-06
5.36106e-06
4.89369e-06
4.20425e-06
3.39424e-06
2.20017e-06
2.75324e-06
3.10596e-06
3.35644e-06
3.52865e-06
3.64223e-06
3.64788e-06
3.41874e-06
3.07313e-06
2.54777e-06
1.97072e-06
1.39824e-06
1.02204e-05
9.49328e-06
8.75696e-06
7.92266e-06
7.12621e-06
6.28204e-06
5.48725e-06
4.72973e-06
4.09769e-06
3.69218e-06
3.56377e-06
3.58187e-06
5.68755e-06
4.9229e-06
3.89013e-06
3.22466e-06
2.45464e-06
1.95615e-06
1.43412e-06
1.14339e-06
9.06142e-07
8.80994e-07
8.63063e-07
9.93923e-07
2.49089e-06
1.95078e-06
1.29605e-06
1.01121e-06
6.00366e-07
4.79869e-07
2.68244e-07
2.4476e-07
1.70466e-07
1.77497e-07
1.86749e-07
2.65091e-07
9.04909e-07
6.28252e-07
3.40343e-07
2.58919e-07
1.20945e-07
9.65892e-08
5.06213e-08
4.66874e-08
2.92964e-08
3.08475e-08
3.40965e-08
6.01182e-08
3.7243e-06
4.27303e-06
5.1138e-06
6.33221e-06
7.84513e-06
9.2381e-06
1.01596e-05
1.07543e-05
1.11195e-05
1.13308e-05
1.14492e-05
1.15208e-05
1.22994e-06
1.6082e-06
2.35624e-06
3.70448e-06
5.48855e-06
7.37753e-06
8.91285e-06
9.83896e-06
1.04085e-05
1.0728e-05
1.08794e-05
1.08915e-05
4.05204e-07
5.95146e-07
1.02228e-06
1.83312e-06
3.21206e-06
5.27762e-06
7.30933e-06
8.63868e-06
9.40093e-06
9.80605e-06
9.9776e-06
9.8619e-06
1.42837e-07
2.34557e-07
4.78254e-07
1.00823e-06
2.06592e-06
3.69983e-06
5.77118e-06
7.42329e-06
8.33588e-06
8.81646e-06
9.01007e-06
8.80813e-06
1.15458e-05
1.14799e-05
1.12552e-05
1.09368e-05
1.04514e-05
9.85045e-06
9.08314e-06
8.25884e-06
7.38892e-06
6.64795e-06
6.09677e-06
5.92528e-06
1.05496e-05
1.00936e-05
9.51665e-06
8.81715e-06
7.96032e-06
7.0216e-06
6.02782e-06
5.11776e-06
4.34663e-06
3.83859e-06
3.59324e-06
3.64688e-06
9.27101e-06
8.68424e-06
7.91485e-06
7.05529e-06
6.08883e-06
5.10908e-06
4.16783e-06
3.3789e-06
2.7725e-06
2.40783e-06
2.30308e-06
2.39562e-06
8.11491e-06
7.46998e-06
6.61626e-06
5.73058e-06
4.77527e-06
3.85567e-06
3.0134e-06
2.32658e-06
1.79687e-06
1.44879e-06
1.33584e-06
1.41209e-06
5.95091e-06
6.24381e-06
6.76544e-06
7.39713e-06
8.11938e-06
8.88807e-06
9.46064e-06
9.86087e-06
1.01203e-05
1.02746e-05
1.0284e-05
1.01281e-05
3.96045e-06
4.53452e-06
5.11737e-06
5.8258e-06
6.46302e-06
6.98417e-06
7.39957e-06
7.70847e-06
7.90637e-06
7.89021e-06
7.37159e-06
6.65192e-06
2.82332e-06
3.35013e-06
3.80976e-06
4.29123e-06
4.66116e-06
4.95053e-06
5.1718e-06
5.27552e-06
5.16045e-06
4.73124e-06
4.09856e-06
3.34465e-06
2.09825e-06
2.65657e-06
3.00271e-06
3.24681e-06
3.41362e-06
3.52644e-06
3.53673e-06
3.33087e-06
3.00779e-06
2.51592e-06
1.96895e-06
1.42049e-06
9.62577e-06
8.97783e-06
8.33751e-06
7.59657e-06
6.90383e-06
6.16258e-06
5.47833e-06
4.82893e-06
4.30489e-06
3.99087e-06
3.93591e-06
4.00804e-06
5.50042e-06
4.82163e-06
3.86542e-06
3.2628e-06
2.54745e-06
2.08957e-06
1.60263e-06
1.33528e-06
1.11976e-06
1.12151e-06
1.16334e-06
1.39079e-06
2.49659e-06
1.98786e-06
1.35923e-06
1.0837e-06
6.79955e-07
5.56864e-07
3.388e-07
3.18408e-07
2.42929e-07
2.58363e-07
3.0686e-07
4.58534e-07
9.41652e-07
6.66458e-07
3.79414e-07
2.91384e-07
1.46043e-07
1.20471e-07
6.82772e-08
6.49825e-08
4.52408e-08
4.93635e-08
6.42328e-08
1.24408e-07
4.34054e-06
5.01017e-06
6.05704e-06
7.64557e-06
9.06119e-06
1.02856e-05
1.10345e-05
1.14618e-05
1.17025e-05
1.1897e-05
1.20393e-05
1.23333e-05
1.70428e-06
2.14873e-06
2.97474e-06
4.28396e-06
6.22801e-06
8.21405e-06
9.8059e-06
1.074e-05
1.1294e-05
1.16036e-05
1.17615e-05
1.184e-05
7.159e-07
9.77887e-07
1.53732e-06
2.45137e-06
3.92144e-06
6.0271e-06
8.1525e-06
9.53291e-06
1.03232e-05
1.07434e-05
1.09237e-05
1.0758e-05
3.32453e-07
4.92034e-07
8.78256e-07
1.56769e-06
2.6939e-06
4.38162e-06
6.52236e-06
8.24302e-06
9.18894e-06
9.6831e-06
9.87831e-06
9.6119e-06
7.75564e-06
7.02025e-06
6.06507e-06
5.1269e-06
4.14451e-06
3.23389e-06
2.42563e-06
1.77068e-06
1.25452e-06
8.74317e-07
6.07367e-07
4.20569e-07
6.77372e-06
6.06021e-06
5.1465e-06
4.28151e-06
3.38855e-06
2.58041e-06
1.87053e-06
1.29552e-06
8.40444e-07
5.02617e-07
2.64125e-07
1.18452e-07
5.86052e-06
5.19944e-06
4.35551e-06
3.57917e-06
2.78385e-06
2.07585e-06
1.4579e-06
9.60306e-07
5.74176e-07
3.00054e-07
1.26836e-07
4.38304e-08
4.98971e-06
4.40406e-06
3.64571e-06
2.96623e-06
2.27124e-06
1.66006e-06
1.12969e-06
7.07936e-07
3.92104e-07
1.83119e-07
6.63255e-08
2.06242e-08
4.14906e-06
3.65232e-06
2.98925e-06
2.41108e-06
1.81712e-06
1.30044e-06
8.55548e-07
5.08829e-07
2.61341e-07
1.1058e-07
3.63766e-08
1.09812e-08
3.3404e-06
2.93288e-06
2.37321e-06
1.89829e-06
1.40606e-06
9.83066e-07
6.23249e-07
3.50784e-07
1.67208e-07
6.48464e-08
1.99437e-08
6.06012e-09
2.57121e-06
2.24876e-06
1.7989e-06
1.42675e-06
1.03693e-06
7.06948e-07
4.31117e-07
2.29549e-07
1.02043e-07
3.67541e-08
1.07461e-08
3.30401e-09
1.86218e-06
1.62009e-06
1.28162e-06
1.00794e-06
7.18561e-07
4.77852e-07
2.8089e-07
1.4223e-07
5.96041e-08
2.02555e-08
5.69495e-09
1.76248e-09
1.2489e-06
1.07948e-06
8.45509e-07
6.60001e-07
4.62717e-07
3.01394e-07
1.72077e-07
8.39299e-08
3.37435e-08
1.10085e-08
2.99428e-09
9.18942e-10
7.7014e-07
6.59274e-07
5.1262e-07
3.98299e-07
2.76485e-07
1.78129e-07
1.00288e-07
4.8157e-08
1.90149e-08
6.05401e-09
1.58857e-09
4.7099e-10
4.50457e-07
3.78769e-07
2.93603e-07
2.28384e-07
1.58916e-07
1.02997e-07
5.85752e-08
2.85065e-08
1.13874e-08
3.59108e-09
8.93541e-10
2.47862e-10
2.93434e-07
2.41337e-07
1.87235e-07
1.46701e-07
1.03558e-07
6.85317e-08
4.01573e-08
2.01482e-08
8.26699e-09
2.58634e-09
5.98731e-10
1.56403e-10
1.66785e-06
2.23182e-06
2.48947e-06
2.61745e-06
2.67762e-06
2.61391e-06
2.39294e-06
2.06983e-06
1.67966e-06
1.24226e-06
8.44584e-07
5.17344e-07
1.44734e-06
1.89215e-06
2.07095e-06
2.13675e-06
2.09621e-06
1.89529e-06
1.6101e-06
1.27321e-06
9.26879e-07
6.06633e-07
3.60561e-07
1.93243e-07
1.27434e-06
1.64389e-06
1.77426e-06
1.80272e-06
1.68299e-06
1.43406e-06
1.14223e-06
8.32428e-07
5.51765e-07
3.26565e-07
1.77788e-07
9.33263e-08
1.12358e-06
1.44119e-06
1.54974e-06
1.55782e-06
1.40278e-06
1.14901e-06
8.76292e-07
6.06431e-07
3.83293e-07
2.21862e-07
1.26613e-07
8.00561e-08
9.8384e-07
1.26274e-06
1.36498e-06
1.37098e-06
1.21781e-06
9.82042e-07
7.40025e-07
5.11028e-07
3.3552e-07
2.13735e-07
1.37569e-07
1.01154e-07
8.48276e-07
1.09177e-06
1.19839e-06
1.21795e-06
1.09484e-06
8.9213e-07
6.86484e-07
5.00917e-07
3.49863e-07
2.42985e-07
1.80881e-07
1.49235e-07
7.13026e-07
9.13134e-07
1.02945e-06
1.07249e-06
9.96914e-07
8.45839e-07
6.7837e-07
5.20095e-07
3.94701e-07
3.05707e-07
2.46759e-07
2.08486e-07
5.78351e-07
7.21903e-07
8.39309e-07
9.05732e-07
8.75417e-07
7.95131e-07
6.67537e-07
5.44965e-07
4.43084e-07
3.62764e-07
3.02116e-07
2.55464e-07
4.44709e-07
5.23429e-07
6.25664e-07
7.05181e-07
7.1122e-07
6.78554e-07
6.18538e-07
5.28978e-07
4.46897e-07
3.77354e-07
3.1927e-07
2.6919e-07
3.14678e-07
3.40884e-07
4.12089e-07
4.81547e-07
5.12191e-07
5.04242e-07
4.79254e-07
4.43397e-07
3.9548e-07
3.40257e-07
2.90583e-07
2.46355e-07
2.02067e-07
2.00767e-07
2.37952e-07
2.83865e-07
3.17534e-07
3.27622e-07
3.21037e-07
3.05523e-07
2.8564e-07
2.6196e-07
2.33681e-07
2.03342e-07
1.3078e-07
1.26354e-07
1.39464e-07
1.67253e-07
1.94322e-07
2.12625e-07
2.19793e-07
2.17182e-07
2.10208e-07
2.01263e-07
1.8917e-07
1.71652e-07
2.93721e-07
1.78672e-07
8.56996e-08
6.15294e-08
2.909e-08
2.3341e-08
1.21409e-08
1.00279e-08
5.59657e-09
5.15638e-09
5.10892e-09
7.42057e-09
1.01555e-07
5.94264e-08
3.41923e-08
2.70967e-08
1.69019e-08
1.30628e-08
7.66733e-09
5.10846e-09
2.58884e-09
1.49492e-09
8.95531e-10
8.77976e-10
5.63251e-08
4.09883e-08
3.35902e-08
2.94419e-08
2.34064e-08
1.7551e-08
1.14546e-08
6.4639e-09
3.06708e-09
1.26022e-09
4.60971e-10
2.02191e-10
6.09701e-08
5.46427e-08
5.0908e-08
4.60657e-08
3.82757e-08
2.86662e-08
1.88724e-08
1.06617e-08
5.02883e-09
1.91577e-09
5.28175e-10
1.55427e-10
8.88184e-08
8.29327e-08
7.70222e-08
6.82193e-08
5.58941e-08
4.14136e-08
2.71124e-08
1.52556e-08
7.15391e-09
2.7159e-09
7.63956e-10
1.95917e-10
1.32615e-07
1.20303e-07
1.07251e-07
9.15853e-08
7.30831e-08
5.33258e-08
3.47145e-08
1.95425e-08
9.21286e-09
3.51901e-09
1.00028e-09
2.51755e-10
1.81622e-07
1.58358e-07
1.35075e-07
1.10585e-07
8.56469e-08
6.15354e-08
3.99604e-08
2.27375e-08
1.09221e-08
4.257e-09
1.24764e-09
3.15207e-10
2.1641e-07
1.81601e-07
1.49374e-07
1.19144e-07
9.09173e-08
6.49393e-08
4.226e-08
2.43742e-08
1.20176e-08
4.8496e-09
1.48724e-09
3.8313e-10
2.25308e-07
1.86348e-07
1.51315e-07
1.19529e-07
9.06141e-08
6.47119e-08
4.24812e-08
2.48746e-08
1.25368e-08
5.27222e-09
1.71038e-09
4.57286e-10
2.06736e-07
1.71125e-07
1.38984e-07
1.09879e-07
8.35558e-08
6.00944e-08
4.00009e-08
2.39965e-08
1.25755e-08
5.54698e-09
1.92033e-09
5.4042e-10
1.74241e-07
1.46637e-07
1.20651e-07
9.64014e-08
7.40485e-08
5.38974e-08
3.65106e-08
2.24912e-08
1.23069e-08
5.75495e-09
2.15086e-09
6.42475e-10
1.51069e-07
1.29414e-07
1.07747e-07
8.68504e-08
6.72884e-08
4.95342e-08
3.41511e-08
2.16205e-08
1.23408e-08
6.13856e-09
2.50515e-09
7.55702e-10
5.78701e-08
1.00841e-07
2.40398e-07
5.8317e-07
1.30579e-06
2.60489e-06
4.42077e-06
6.23225e-06
7.26231e-06
7.81034e-06
8.03131e-06
7.81058e-06
3.02111e-08
4.74976e-08
1.28578e-07
3.49472e-07
8.52218e-07
1.82287e-06
3.33781e-06
5.07119e-06
6.20507e-06
6.80531e-06
7.05562e-06
6.87017e-06
1.71351e-08
2.41707e-08
7.14442e-08
2.09844e-07
5.51976e-07
1.26489e-06
2.47164e-06
4.01114e-06
5.18211e-06
5.80968e-06
6.08538e-06
5.9693e-06
9.78208e-09
1.29294e-08
4.01931e-08
1.27275e-07
3.57097e-07
8.65695e-07
1.78824e-06
3.07752e-06
4.20878e-06
4.83239e-06
5.12331e-06
5.09015e-06
5.42828e-09
6.9153e-09
2.2468e-08
7.65238e-08
2.28803e-07
5.83636e-07
1.26215e-06
2.28212e-06
3.3035e-06
3.88978e-06
4.18162e-06
4.20739e-06
2.86998e-09
3.63815e-09
1.24011e-08
4.56178e-08
1.45392e-07
3.88049e-07
8.69322e-07
1.63162e-06
2.48606e-06
3.00077e-06
3.27465e-06
3.33251e-06
1.42482e-09
1.85852e-09
6.69515e-09
2.68532e-08
9.1725e-08
2.5536e-07
5.86007e-07
1.12462e-06
1.78001e-06
2.19513e-06
2.43075e-06
2.50016e-06
6.5863e-10
9.18048e-10
3.50448e-09
1.55915e-08
5.77109e-08
1.67519e-07
3.8915e-07
7.49882e-07
1.20498e-06
1.50708e-06