/*--------------------------------*- C++ -*----------------------------------*\
| =========                 |                                                 |
| \\      /  F ield         | OpenFOAM: The Open Source CFD Toolbox           |
|  \\    /   O peration     | Version:  2212                                  |
|   \\  /    A nd           | Website:  www.openfoam.com                      |
|    \\/     M anipulation  |                                                 |
\*---------------------------------------------------------------------------*/
FoamFile
{
    version     2.0;
    format      ascii;
    arch        "LSB;label=32;scalar=64";
    class       volScalarField;
    location    "0.06";
    object      tracer0;
}
// * * * * * * * * * * * * * * * * * * * * * * * * * * * * * * * * * * * * * //

dimensions      [0 0 0 0 0 0 0];

internalField   nonuniform List<scalar> 
3072
(
1.93294e-05
1.93236e-05
1.92813e-05
1.91815e-05
1.91026e-05
1.89823e-05
1.89796e-05
1.92867e-05
2.19214e-05
2.34856e-05
2.36023e-05
2.36377e-05
1.97315e-05
1.96476e-05
1.9433e-05
1.91981e-05
1.90536e-05
1.93578e-05
2.05591e-05
2.23254e-05
2.30958e-05
2.33267e-05
2.31542e-05
2.28107e-05
1.991e-05
1.97441e-05
1.93853e-05
1.91683e-05
1.95388e-05
2.10312e-05
2.23441e-05
2.27787e-05
2.28874e-05
2.25161e-05
2.14238e-05
2.00124e-05
2.00738e-05
1.98044e-05
1.94723e-05
1.96935e-05
2.08917e-05
2.20875e-05
2.24672e-05
2.25387e-05
2.19114e-05
1.99869e-05
1.74624e-05
1.5792e-05
2.02592e-05
2.02909e-05
2.01987e-05
2.07781e-05
2.17994e-05
2.22095e-05
2.22977e-05
2.17583e-05
1.96947e-05
1.68504e-05
1.4563e-05
1.29336e-05
2.04081e-05
2.06901e-05
2.08552e-05
2.15347e-05
2.19898e-05
2.21197e-05
2.18779e-05
2.03672e-05
1.7525e-05
1.46864e-05
1.26821e-05
1.11757e-05
2.057e-05
2.10553e-05
2.13413e-05
2.17756e-05
2.1932e-05
2.18947e-05
2.10903e-05
1.89385e-05
1.61848e-05
1.37834e-05
1.20662e-05
1.07243e-05
2.07958e-05
2.12253e-05
2.14994e-05
2.17493e-05
2.18204e-05
2.1599e-05
2.06021e-05
1.87694e-05
1.62902e-05
1.40075e-05
1.23357e-05
1.10357e-05
2.42091e-05
2.34997e-05
2.15868e-05
2.16047e-05
2.1608e-05
2.13803e-05
2.06489e-05
1.90798e-05
1.69341e-05
1.48548e-05
1.32466e-05
1.20077e-05
2.80631e-05
2.60566e-05
2.37767e-05
2.17026e-05
2.15523e-05
2.13853e-05
2.09134e-05
1.99034e-05
1.8492e-05
1.68848e-05
1.54524e-05
1.42534e-05
3.02264e-05
3.1883e-05
3.10312e-05
2.50989e-05
2.30168e-05
2.22062e-05
2.17459e-05
2.11241e-05
2.02268e-05
1.90796e-05
1.79885e-05
1.69833e-05
3.46441e-05
3.54567e-05
3.76839e-05
3.65404e-05
3.3916e-05
3.13165e-05
2.90579e-05
2.71381e-05
2.55495e-05
2.42535e-05
2.312e-05
2.2317e-05
2.3656e-05
2.3687e-05
2.37086e-05
2.37515e-05
2.37879e-05
2.38585e-05
2.39464e-05
2.40493e-05
2.41416e-05
2.4205e-05
2.4233e-05
2.42085e-05
2.24429e-05
2.20964e-05
2.18941e-05
2.18525e-05
2.19756e-05
2.22653e-05
2.26833e-05
2.32271e-05
2.3759e-05
2.41549e-05
2.43416e-05
2.44152e-05
1.87909e-05
1.78512e-05
1.73636e-05
1.72336e-05
1.74023e-05
1.80596e-05
1.89863e-05
2.03978e-05
2.1986e-05
2.34849e-05
2.42158e-05
2.44877e-05
1.42742e-05
1.33525e-05
1.27646e-05
1.26481e-05
1.27851e-05
1.35257e-05
1.46729e-05
1.65134e-05
1.89908e-05
2.20078e-05
2.38538e-05
2.45364e-05
1.15464e-05
1.0839e-05
1.04224e-05
1.03487e-05
1.05518e-05
1.12346e-05
1.23439e-05
1.41247e-05
1.6601e-05
2.01724e-05
2.33785e-05
2.45956e-05
1.0064e-05
9.50972e-06
9.21046e-06
9.15556e-06
9.47615e-06
1.01167e-05
1.11838e-05
1.29574e-05
1.5419e-05
1.91341e-05
2.29877e-05
2.46512e-05
9.72663e-06
9.13695e-06
8.75891e-06
8.70878e-06
9.09276e-06
9.72949e-06
1.07572e-05
1.25131e-05
1.49222e-05
1.86652e-05
2.27578e-05
2.47132e-05
1.0056e-05
9.46139e-06
9.0862e-06
9.15135e-06
9.39008e-06
9.90834e-06
1.08337e-05
1.25247e-05
1.48938e-05
1.85982e-05
2.26744e-05
2.47718e-05
1.10773e-05
1.04777e-05
1.02103e-05
1.03746e-05
1.07366e-05
1.14068e-05
1.24922e-05
1.43558e-05
1.66362e-05
1.99612e-05
2.33201e-05
2.48877e-05
1.34529e-05
1.2806e-05
1.26747e-05
1.29244e-05
1.33674e-05
1.41023e-05
1.52149e-05
1.69336e-05
1.89658e-05
2.18003e-05
2.41048e-05
2.50615e-05
1.63663e-05
1.59485e-05
1.60797e-05
1.65133e-05
1.71552e-05
1.81103e-05
1.95256e-05
2.12254e-05
2.32407e-05
2.4473e-05
2.51138e-05
2.52411e-05
2.16281e-05
2.14868e-05
2.18802e-05
2.24702e-05
2.32149e-05
2.40669e-05
2.48158e-05
2.52719e-05
2.54834e-05
2.54983e-05
2.54461e-05
2.53097e-05
1.91516e-05
1.91527e-05
1.91465e-05
1.91275e-05
1.91108e-05
1.9109e-05
1.91214e-05
1.91978e-05
1.96706e-05
1.98871e-05
1.98941e-05
1.98892e-05
1.92936e-05
1.9298e-05
1.92666e-05
1.91803e-05
1.91514e-05
1.92327e-05
1.95075e-05
1.96855e-05
1.97653e-05
1.97807e-05
1.96011e-05
1.93911e-05
1.94245e-05
1.94542e-05
1.93814e-05
1.92431e-05
1.93105e-05
1.95596e-05
1.9646e-05
1.96635e-05
1.95977e-05
1.92624e-05
1.85969e-05
1.77917e-05
1.94904e-05
1.95538e-05
1.94464e-05
1.94207e-05
1.95541e-05
1.96066e-05
1.96086e-05
1.94647e-05
1.89653e-05
1.776e-05
1.63846e-05
1.53109e-05
1.95558e-05
1.96233e-05
1.95818e-05
1.95695e-05
1.95972e-05
1.95821e-05
1.94566e-05
1.89579e-05
1.76795e-05
1.60175e-05
1.44941e-05
1.32522e-05
1.95893e-05
1.96742e-05
1.96409e-05
1.96123e-05
1.95879e-05
1.94991e-05
1.91395e-05
1.80179e-05
1.62953e-05
1.44854e-05
1.29612e-05
1.17466e-05
1.96074e-05
1.96964e-05
1.96692e-05
1.96139e-05
1.95454e-05
1.92832e-05
1.85558e-05
1.72669e-05
1.56082e-05
1.39469e-05
1.25436e-05
1.14042e-05
1.96168e-05
1.97058e-05
1.96814e-05
1.96047e-05
1.94666e-05
1.91503e-05
1.8475e-05
1.72999e-05
1.57471e-05
1.41703e-05
1.28156e-05
1.17095e-05
1.96122e-05
1.97094e-05
1.96979e-05
1.96155e-05
1.94776e-05
1.91879e-05
1.86015e-05
1.76187e-05
1.63099e-05
1.49191e-05
1.36759e-05
1.26454e-05
1.96054e-05
1.97041e-05
1.97053e-05
1.96637e-05
1.95726e-05
1.93908e-05
1.90272e-05
1.84568e-05
1.76368e-05
1.66484e-05
1.56621e-05
1.47554e-05
1.95417e-05
1.96333e-05
1.96351e-05
1.96267e-05
1.96023e-05
1.95291e-05
1.9409e-05
1.91674e-05
1.88703e-05
1.83989e-05
1.79527e-05
1.74078e-05
1.97009e-05
1.97762e-05
1.98313e-05
1.98501e-05
1.985e-05
1.98098e-05
1.97618e-05
1.96316e-05
1.94875e-05
1.92527e-05
1.90111e-05
1.87829e-05
1.9891e-05
1.98931e-05
1.98979e-05
1.99051e-05
1.99233e-05
1.99557e-05
2.00028e-05
2.00576e-05
2.01119e-05
2.01538e-05
2.01757e-05
2.01849e-05
1.91403e-05
1.89185e-05
1.87785e-05
1.87434e-05
1.88076e-05
1.89595e-05
1.91866e-05
1.94779e-05
1.97728e-05
2.00219e-05
2.01416e-05
2.01858e-05
1.7059e-05
1.6546e-05
1.62487e-05
1.61967e-05
1.63029e-05
1.66826e-05
1.71984e-05
1.79544e-05
1.87417e-05
1.95883e-05
2.00358e-05
2.02045e-05
1.43698e-05
1.37453e-05
1.33824e-05
1.33335e-05
1.34897e-05
1.40803e-05
1.48609e-05
1.60067e-05
1.72773e-05
1.86683e-05
1.98016e-05
2.02233e-05
1.22185e-05
1.15708e-05
1.1236e-05
1.11817e-05
1.14276e-05
1.21071e-05
1.31387e-05
1.4538e-05
1.61679e-05
1.78032e-05
1.94932e-05
2.02465e-05
1.08201e-05
1.02617e-05
1.00083e-05
9.96487e-06
1.03385e-05
1.10234e-05
1.21125e-05
1.36533e-05
1.55305e-05
1.73521e-05
1.92209e-05
2.02753e-05
1.05175e-05
9.89863e-06
9.52487e-06
9.48792e-06
9.9324e-06
1.06335e-05
1.17351e-05
1.33091e-05
1.52676e-05
1.71566e-05
1.90763e-05
2.03046e-05
1.08497e-05
1.02541e-05
9.89341e-06
9.98141e-06
1.02636e-05
1.08363e-05
1.18804e-05
1.33787e-05
1.52951e-05
1.71378e-05
1.90313e-05
2.03364e-05
1.18622e-05
1.13126e-05
1.11189e-05
1.13121e-05
1.17087e-05
1.23873e-05
1.34827e-05
1.49125e-05
1.65019e-05
1.78603e-05
1.93385e-05
2.04007e-05
1.41524e-05
1.36391e-05
1.36457e-05
1.38973e-05
1.42976e-05
1.48809e-05
1.56919e-05
1.66696e-05
1.76241e-05
1.85504e-05
1.97238e-05
2.05166e-05
1.70764e-05
1.67378e-05
1.6744e-05
1.69234e-05
1.7189e-05
1.75528e-05
1.8008e-05
1.85888e-05
1.92245e-05
1.99508e-05
2.04744e-05
2.06882e-05
1.86151e-05
1.85608e-05
1.86462e-05
1.88275e-05
1.90795e-05
1.94159e-05
1.98301e-05
2.03063e-05
2.06041e-05
2.0748e-05
2.08142e-05
2.07658e-05
3.18295e-05
3.18961e-05
3.22421e-05
3.27311e-05
3.31645e-05
3.36505e-05
3.38066e-05
3.27087e-05
2.30658e-05
1.76643e-05
1.73009e-05
1.7303e-05
3.0236e-05
3.10027e-05
3.22542e-05
3.33553e-05
3.40504e-05
3.27938e-05
2.90244e-05
2.17103e-05
1.82668e-05
1.70267e-05
1.67474e-05
1.63582e-05
2.95434e-05
3.12136e-05
3.30858e-05
3.41187e-05
3.26144e-05
2.78229e-05
2.09846e-05
1.8027e-05
1.67309e-05
1.58294e-05
1.47755e-05
1.31255e-05
2.88504e-05
3.14738e-05
3.32113e-05
3.24012e-05
2.83849e-05
2.16445e-05
1.79298e-05
1.6284e-05
1.48649e-05
1.31224e-05
1.10616e-05
9.54386e-06
2.80848e-05
2.96162e-05
3.04385e-05
2.83197e-05
2.30086e-05
1.82723e-05
1.61081e-05
1.46472e-05
1.27658e-05
1.05843e-05
8.61255e-06
7.31166e-06
2.71365e-05
2.74171e-05
2.73158e-05
2.4018e-05
1.95745e-05
1.64491e-05
1.50012e-05
1.33333e-05
1.10479e-05
8.81954e-06
7.09909e-06
5.98195e-06
2.61497e-05
2.52993e-05
2.41326e-05
2.08457e-05
1.75077e-05
1.54128e-05
1.41008e-05
1.21488e-05
9.99029e-06
8.07547e-06
6.62001e-06
5.63161e-06
2.51955e-05
2.34724e-05
2.18722e-05
1.87272e-05
1.63526e-05
1.47674e-05
1.3641e-05
1.20126e-05
1.00729e-05
8.25555e-06
6.8413e-06
5.86543e-06
2.47728e-05
2.21052e-05
1.97047e-05
1.71685e-05
1.56453e-05
1.45776e-05
1.3697e-05
1.22701e-05
1.05786e-05
8.93898e-06
7.58375e-06
6.61623e-06
2.38042e-05
2.02586e-05
1.85585e-05
1.67688e-05
1.56915e-05
1.47278e-05
1.40094e-05
1.29703e-05
1.17688e-05
1.05359e-05
9.36311e-06
8.38278e-06
2.38695e-05
2.05613e-05
1.91517e-05
1.76493e-05
1.66063e-05
1.56187e-05
1.49227e-05
1.41676e-05
1.32961e-05
1.22969e-05
1.1467e-05
1.06554e-05
2.39068e-05
2.30171e-05
2.23455e-05
2.16602e-05
2.09501e-05
1.99915e-05
1.88977e-05
1.784e-05
1.68547e-05
1.59845e-05
1.5128e-05
1.45404e-05
1.73198e-05
1.73386e-05
1.73607e-05
1.73904e-05
1.74368e-05
1.7504e-05
1.76077e-05
1.77222e-05
1.78451e-05
1.793e-05
1.79721e-05
1.79831e-05
1.59068e-05
1.54937e-05
1.52345e-05
1.51659e-05
1.52821e-05
1.55603e-05
1.59942e-05
1.65699e-05
1.71963e-05
1.77354e-05
1.79963e-05
1.80897e-05
1.20715e-05
1.11408e-05
1.07771e-05
1.0622e-05
1.07554e-05
1.13016e-05
1.21283e-05
1.34192e-05
1.49533e-05
1.6738e-05
1.77493e-05
1.81218e-05
8.40379e-06
7.5957e-06
7.2e-06
7.08835e-06
7.19291e-06
7.75435e-06
8.61028e-06
1.00374e-05
1.2085e-05
1.47211e-05
1.72256e-05
1.81531e-05
6.27216e-06
5.68654e-06
5.3914e-06
5.33527e-06
5.49206e-06
6.01824e-06
6.87827e-06
8.24942e-06
1.02673e-05
1.30103e-05
1.65335e-05
1.81951e-05
5.11919e-06
4.68743e-06
4.46722e-06
4.42544e-06
4.66726e-06
5.1572e-06
5.98157e-06
7.28161e-06
9.33035e-06
1.21158e-05
1.5892e-05
1.8242e-05
4.85737e-06
4.40795e-06
4.12588e-06
4.08779e-06
4.37527e-06
4.85972e-06
5.66468e-06
6.92321e-06
8.94706e-06
1.17211e-05
1.55623e-05
1.8294e-05
5.10914e-06
4.65424e-06
4.37082e-06
4.41965e-06
4.60021e-06
4.99585e-06
5.74343e-06
6.93029e-06
8.92692e-06
1.16627e-05
1.54526e-05
1.8342e-05
5.89434e-06
5.43163e-06
5.22385e-06
5.34897e-06
5.6264e-06
6.14335e-06
7.00987e-06
8.34215e-06
1.03193e-05
1.27183e-05
1.59945e-05
1.84614e-05
7.73503e-06
7.2217e-06
7.11913e-06
7.31688e-06
7.66682e-06
8.24454e-06
9.10252e-06
1.04062e-05
1.21561e-05
1.42433e-05
1.6892e-05
1.8698e-05
1.01697e-05
9.80093e-06
9.88307e-06
1.02129e-05
1.071e-05
1.14302e-05
1.24241e-05
1.38596e-05
1.55443e-05
1.71823e-05
1.84548e-05
1.90165e-05
1.40129e-05
1.39406e-05
1.42464e-05
1.47469e-05
1.54222e-05
1.62475e-05
1.72845e-05
1.80873e-05
1.86351e-05
1.89381e-05
1.91773e-05
1.91522e-05
2.13585e-05
2.13521e-05
2.13153e-05
2.12215e-05
2.11443e-05
2.10231e-05
2.10238e-05
2.13392e-05
2.40465e-05
2.5647e-05
2.57656e-05
2.57939e-05
2.17633e-05
2.16959e-05
2.15042e-05
2.12655e-05
2.1122e-05
2.14416e-05
2.27382e-05
2.44315e-05
2.51674e-05
2.5391e-05
2.50596e-05
2.45396e-05
2.19419e-05
2.18149e-05
2.14843e-05
2.1261e-05
2.16334e-05
2.31905e-05
2.43539e-05
2.47127e-05
2.47956e-05
2.4062e-05
2.2326e-05
2.03319e-05
2.21012e-05
2.19249e-05
2.15888e-05
2.18075e-05
2.30492e-05
2.40549e-05
2.4319e-05
2.43324e-05
2.32672e-05
2.03193e-05
1.74415e-05
1.56505e-05
2.22748e-05
2.23998e-05
2.23495e-05
2.2924e-05
2.375e-05
2.40205e-05
2.40378e-05
2.30954e-05
2.01035e-05
1.675e-05
1.43452e-05
1.25535e-05
2.23735e-05
2.27496e-05
2.29199e-05
2.34977e-05
2.37923e-05
2.38717e-05
2.33956e-05
2.11713e-05
1.75076e-05
1.44303e-05
1.23129e-05
1.06336e-05
2.25008e-05
2.30055e-05
2.3261e-05
2.35941e-05
2.37071e-05
2.352e-05
2.22557e-05
1.93617e-05
1.6008e-05
1.34715e-05
1.16388e-05
1.0142e-05
2.25913e-05
2.31329e-05
2.33747e-05
2.35221e-05
2.35243e-05
2.30612e-05
2.16425e-05
1.91887e-05
1.61435e-05
1.37108e-05
1.19292e-05
1.04854e-05
2.26073e-05
2.31213e-05
2.33121e-05
2.33667e-05
2.33073e-05
2.28398e-05
2.17368e-05
1.96044e-05
1.69161e-05
1.46309e-05
1.2909e-05
1.15425e-05
2.26115e-05
2.30541e-05
2.31664e-05
2.31929e-05
2.31495e-05
2.28828e-05
2.22458e-05
2.08926e-05
1.8838e-05
1.67806e-05
1.50347e-05
1.36792e-05
2.25486e-05
2.28771e-05
2.28952e-05
2.29105e-05
2.29053e-05
2.28343e-05
2.26681e-05
2.22875e-05
2.16207e-05
2.04167e-05
1.93861e-05
1.81415e-05
2.2238e-05
2.23308e-05
2.22741e-05
2.22579e-05
2.22515e-05
2.23531e-05
2.23842e-05
2.22972e-05
2.21784e-05
2.19316e-05
2.16316e-05
2.12368e-05
2.582e-05
2.58498e-05
2.58839e-05
2.59314e-05
2.59961e-05
2.60906e-05
2.62314e-05
2.63887e-05
2.65543e-05
2.6664e-05
2.67152e-05
2.67172e-05
2.39525e-05
2.34093e-05
2.30736e-05
2.29893e-05
2.31475e-05
2.35244e-05
2.41088e-05
2.48903e-05
2.57429e-05
2.64608e-05
2.68029e-05
2.69325e-05
1.88475e-05
1.7672e-05
1.71563e-05
1.69659e-05
1.71442e-05
1.78471e-05
1.89205e-05
2.06325e-05
2.27299e-05
2.5191e-05
2.65036e-05
2.70077e-05
1.39347e-05
1.30072e-05
1.23771e-05
1.22573e-05
1.24035e-05
1.31889e-05
1.43454e-05
1.6189e-05
1.87551e-05
2.25134e-05
2.58058e-05
2.70697e-05
1.10605e-05
1.03207e-05
9.8556e-06
9.77599e-06
1.00084e-05
1.08037e-05
1.20735e-05
1.3973e-05
1.63824e-05
2.01889e-05
2.48774e-05
2.71464e-05
9.44197e-06
8.81321e-06
8.46744e-06
8.40174e-06
8.75163e-06
9.46231e-06
1.06683e-05
1.27473e-05
1.51219e-05
1.90268e-05
2.40204e-05
2.72274e-05
9.06393e-06
8.39552e-06
7.9629e-06
7.90125e-06
8.32222e-06
9.02063e-06
1.01678e-05
1.22823e-05
1.46133e-05
1.84996e-05
2.35895e-05
2.73168e-05
9.42243e-06
8.75852e-06
8.33046e-06
8.39794e-06
8.65229e-06
9.21189e-06
1.0225e-05
1.23422e-05
1.4585e-05
1.84231e-05
2.34512e-05
2.74011e-05
1.05239e-05
9.86303e-06
9.55194e-06
9.72118e-06
1.01074e-05
1.08438e-05
1.20686e-05
1.44353e-05
1.6311e-05
1.98913e-05
2.38356e-05
2.74944e-05
1.28018e-05
1.20904e-05
1.20522e-05
1.23805e-05
1.29342e-05
1.38374e-05
1.51668e-05
1.72706e-05
1.84095e-05
2.09883e-05
2.2788e-05
2.62539e-05
1.74816e-05
1.67952e-05
1.68392e-05
1.72116e-05
1.77389e-05
1.8429e-05
1.90948e-05
1.96468e-05
1.98225e-05
2.09904e-05
2.23842e-05
2.56828e-05
2.09052e-05
2.06563e-05
2.05353e-05
2.05042e-05
2.04664e-05
2.04556e-05
2.03573e-05
2.0312e-05
2.01507e-05
2.08784e-05
2.18766e-05
2.48642e-05
2.48264e-05
2.58967e-05
2.89133e-05
2.93342e-05
3.01141e-05
3.03233e-05
3.01375e-05
2.99018e-05
2.94306e-05
2.89452e-05
2.83741e-05
2.79457e-05
2.16444e-05
2.22692e-05
2.42872e-05
2.4695e-05
2.50053e-05
2.55501e-05
2.61941e-05
2.69087e-05
2.73953e-05
2.77099e-05
2.7717e-05
2.76349e-05
1.76046e-05
1.93969e-05
1.97468e-05
2.00972e-05
2.04842e-05
2.08778e-05
2.13502e-05
2.18128e-05
2.23326e-05
2.28268e-05
2.33002e-05
2.35099e-05
1.5869e-05
1.6053e-05
1.63013e-05
1.65439e-05
1.68815e-05
1.7224e-05
1.76938e-05
1.81475e-05
1.86998e-05
1.90815e-05
1.93839e-05
1.91948e-05
2.75366e-05
2.7373e-05
2.72085e-05
2.70516e-05
2.68709e-05
2.66763e-05
2.64354e-05
2.61761e-05
2.58729e-05
2.56041e-05
2.53524e-05
2.52489e-05
2.74733e-05
2.72368e-05
2.69234e-05
2.65209e-05
2.60183e-05
2.54613e-05
2.47864e-05
2.41462e-05
2.34921e-05
2.29877e-05
2.26067e-05
2.2921e-05
2.33031e-05
2.29008e-05
2.23634e-05
2.17258e-05
2.09968e-05
2.02517e-05
1.93867e-05
1.86586e-05
1.79606e-05
1.7561e-05
1.73153e-05
1.76289e-05
1.84966e-05
1.77509e-05
1.69778e-05
1.6251e-05
1.56413e-05
1.50374e-05
1.47026e-05
1.44293e-05
1.43571e-05
1.43393e-05
1.43045e-05
1.4419e-05
2.5053e-05
2.44911e-05
2.4227e-05
2.39192e-05
2.35542e-05
2.3105e-05
2.2606e-05
2.21189e-05
2.16556e-05
2.12999e-05
2.0987e-05
2.07859e-05
2.33438e-05
2.34729e-05
2.35288e-05
2.35095e-05
2.34441e-05
2.33435e-05
2.32448e-05
2.31416e-05
2.29953e-05
2.28191e-05
2.26662e-05
2.2511e-05
1.81259e-05
1.86119e-05
1.91165e-05
1.95751e-05
2.0077e-05
2.05475e-05
2.1038e-05
2.14215e-05
2.16872e-05
2.18455e-05
2.18979e-05
2.18472e-05
1.46184e-05
1.4824e-05
1.50743e-05
1.53502e-05
1.56892e-05
1.60812e-05
1.65468e-05
1.7058e-05
1.76683e-05
1.81536e-05
1.84866e-05
1.83127e-05
2.06134e-05
2.06483e-05
2.07893e-05
2.09576e-05
2.11126e-05
2.12162e-05
2.12371e-05
2.11773e-05
2.11192e-05
2.10223e-05
2.096e-05
2.08692e-05
2.24174e-05
2.23209e-05
2.21982e-05
2.20406e-05
2.1846e-05
2.16072e-05
2.13418e-05
2.10436e-05
2.07371e-05
2.04694e-05
2.02561e-05
2.03196e-05
2.16552e-05
2.13721e-05
2.10015e-05
2.05411e-05
2.00234e-05
1.94065e-05
1.88031e-05
1.81254e-05
1.7592e-05
1.7215e-05
1.70057e-05
1.72532e-05
1.76809e-05
1.70032e-05
1.62956e-05
1.56502e-05
1.50327e-05
1.45717e-05
1.41518e-05
1.39777e-05
1.39025e-05
1.38861e-05
1.38646e-05
1.39527e-05
2.09764e-05
2.12229e-05
2.12802e-05
2.13522e-05
2.13268e-05
2.12819e-05
2.11008e-05
2.09138e-05
2.04971e-05
2.01676e-05
1.96645e-05
1.93701e-05
2.03471e-05
2.04127e-05
2.04776e-05
2.054e-05
2.06316e-05
2.07299e-05
2.08033e-05
2.08124e-05
2.07734e-05
2.07372e-05
2.06845e-05
2.06067e-05
1.76258e-05
1.7893e-05
1.81686e-05
1.83969e-05
1.86611e-05
1.8906e-05
1.9207e-05
1.94629e-05
1.97016e-05
1.98371e-05
1.99458e-05
1.99309e-05
1.41832e-05
1.43462e-05
1.46062e-05
1.48092e-05
1.51328e-05
1.54103e-05
1.58326e-05
1.61986e-05
1.67042e-05
1.70395e-05
1.72626e-05
1.71098e-05
1.90275e-05
1.90354e-05
1.91564e-05
1.9321e-05
1.94671e-05
1.95576e-05
1.95925e-05
1.95609e-05
1.95332e-05
1.9474e-05
1.94415e-05
1.93757e-05
2.05605e-05
2.05093e-05
2.04262e-05
2.03129e-05
2.01588e-05
1.99723e-05
1.975e-05
1.95128e-05
1.9259e-05
1.9051e-05
1.88848e-05
1.89535e-05
1.97933e-05
1.9566e-05
1.92699e-05
1.8903e-05
1.84684e-05
1.80143e-05
1.74539e-05
1.69508e-05
1.64967e-05
1.61824e-05
1.60077e-05
1.62254e-05
1.65816e-05
1.60296e-05
1.54684e-05
1.49413e-05
1.44787e-05
1.40363e-05
1.37835e-05
1.35885e-05
1.35399e-05
1.35286e-05
1.35048e-05
1.35824e-05
1.94545e-05
1.97255e-05
1.98098e-05
1.99601e-05
2.00773e-05
2.03137e-05
2.05442e-05
2.0875e-05
2.11098e-05
2.1325e-05
2.13332e-05
2.12738e-05
1.8964e-05
1.90433e-05
1.909e-05
1.91772e-05
1.92448e-05
1.9372e-05
1.94799e-05
1.96394e-05
1.97782e-05
1.99347e-05
2.00575e-05
2.01631e-05
1.65568e-05
1.67942e-05
1.70413e-05
1.72385e-05
1.74752e-05
1.7661e-05
1.79162e-05
1.80976e-05
1.83442e-05
1.84666e-05
1.86382e-05
1.86395e-05
1.37508e-05
1.389e-05
1.40836e-05
1.42551e-05
1.4497e-05
1.47314e-05
1.50524e-05
1.53539e-05
1.57157e-05
1.59857e-05
1.61693e-05
1.60674e-05
2.12111e-05
2.11342e-05
2.10288e-05
2.0895e-05
2.07275e-05
2.05467e-05
2.03344e-05
2.01168e-05
1.97441e-05
2.01414e-05
2.10656e-05
2.21357e-05
2.01164e-05
2.00003e-05
1.98388e-05
1.96322e-05
1.93761e-05
1.90811e-05
1.87355e-05
1.84053e-05
1.79368e-05
1.81763e-05
1.9109e-05
1.97833e-05
1.85121e-05
1.82904e-05
1.80173e-05
1.76911e-05
1.73259e-05
1.68877e-05
1.64448e-05
1.59548e-05
1.5653e-05
1.53917e-05
1.56924e-05
1.70185e-05
1.57435e-05
1.53728e-05
1.50108e-05
1.46734e-05
1.43691e-05
1.41762e-05
1.408e-05
1.40728e-05
1.40846e-05
1.40941e-05
1.4068e-05
1.449e-05
1.46067e-05
1.43668e-05
1.41866e-05
1.37753e-05
1.34414e-05
1.28571e-05
1.23375e-05
1.15884e-05
1.09613e-05
1.0185e-05
9.70635e-06
9.42903e-06
1.08619e-05
1.05188e-05
1.00246e-05
9.60474e-06
9.04578e-06
8.53825e-06
7.97809e-06
7.49391e-06
7.07835e-06
6.80037e-06
6.72219e-06
6.83629e-06
7.12763e-06
6.79571e-06
6.3862e-06
6.00191e-06
5.55128e-06
5.15786e-06
4.73177e-06
4.40356e-06
4.09577e-06
3.93151e-06
3.86637e-06
4.01248e-06
4.3208e-06
4.07372e-06
3.75194e-06
3.46907e-06
3.13492e-06
2.85965e-06
2.56184e-06
2.34903e-06
2.14704e-06
2.05838e-06
2.02571e-06
2.18113e-06
9.59628e-06
9.97352e-06
1.05495e-05
1.12173e-05
1.19047e-05
1.24946e-05
1.29509e-05
1.3281e-05
1.35124e-05
1.36686e-05
1.37327e-05
1.37565e-05
7.2388e-06
7.78058e-06
8.27577e-06
8.82718e-06
9.36739e-06
9.88353e-06
1.03392e-05
1.07214e-05
1.10306e-05
1.11974e-05
1.12148e-05
1.09399e-05
4.36718e-06
4.91707e-06
5.33814e-06
5.79336e-06
6.23866e-06
6.65975e-06
7.03558e-06
7.37274e-06
7.59773e-06
7.68958e-06
7.59122e-06
7.34366e-06
2.47739e-06
2.9825e-06
3.26059e-06
3.57037e-06
3.87599e-06
4.17103e-06
4.44782e-06
4.6723e-06
4.8129e-06
4.8556e-06
4.73843e-06
4.56344e-06
1.3702e-05
1.36044e-05
1.34336e-05
1.31587e-05
1.28129e-05
1.23732e-05
1.1854e-05
1.12519e-05
1.06251e-05
1.00121e-05
9.52222e-06
9.29591e-06
1.05959e-05
1.02172e-05
9.78609e-06
9.36238e-06
8.88559e-06
8.39219e-06
7.88978e-06
7.42744e-06
7.04011e-06
6.78048e-06
6.70023e-06
6.82179e-06
7.03827e-06
6.71216e-06
6.33424e-06
5.95384e-06
5.53753e-06
5.13901e-06
4.74345e-06
4.40324e-06
4.11849e-06
3.9396e-06
3.89144e-06
4.02316e-06
4.3075e-06
4.06263e-06
3.75042e-06
3.46728e-06
3.14232e-06
2.86166e-06
2.57321e-06
2.35048e-06
2.15858e-06
2.05819e-06
2.0362e-06
2.18446e-06
9.44186e-06
9.81785e-06
1.03577e-05
1.0994e-05
1.16326e-05
1.21841e-05
1.2606e-05
1.29116e-05
1.31252e-05
1.32713e-05
1.33329e-05
1.33569e-05
7.20939e-06
7.73839e-06
8.21852e-06
8.75065e-06
9.27004e-06
9.7641e-06
1.01985e-05
1.05611e-05
1.08558e-05
1.10162e-05
1.10368e-05
1.07906e-05
4.39129e-06
4.93116e-06
5.34852e-06
5.79864e-06
6.23781e-06
6.652e-06
7.02067e-06
7.35024e-06
7.57106e-06
7.66261e-06
7.57256e-06
7.33279e-06
2.48552e-06
2.99118e-06
3.26993e-06
3.58016e-06
3.88589e-06
4.18066e-06
4.45676e-06
4.68068e-06
4.8211e-06
4.86431e-06
4.74968e-06
4.5753e-06
1.3316e-05
1.32149e-05
1.30707e-05
1.28017e-05
1.25103e-05
1.20891e-05
1.16497e-05
1.10831e-05
1.05592e-05
9.98806e-06
9.53413e-06
9.35801e-06
1.04684e-05
1.01286e-05
9.72521e-06
9.33943e-06
8.8855e-06
8.4253e-06
7.94664e-06
7.50431e-06
7.13402e-06
6.8761e-06
6.80521e-06
6.92657e-06
7.03912e-06
6.72098e-06
6.35104e-06
5.97588e-06
5.56161e-06
5.16446e-06
4.76449e-06
4.42066e-06
4.12838e-06
3.94444e-06
3.89249e-06
4.02452e-06
4.32166e-06
4.07618e-06
3.76481e-06
3.47975e-06
3.15412e-06
2.87101e-06
2.58116e-06
2.35684e-06
2.16424e-06
2.06369e-06
2.04191e-06
2.19021e-06
9.49843e-06
9.92911e-06
1.0467e-05
1.10688e-05
1.16521e-05
1.21368e-05
1.25085e-05
1.2775e-05
1.29595e-05
1.3087e-05
1.31434e-05
1.31739e-05
7.32626e-06
7.86274e-06
8.35277e-06
8.8909e-06
9.41428e-06
9.90706e-06
1.03356e-05
1.06898e-05
1.09775e-05
1.11357e-05
1.11609e-05
1.09352e-05
4.39808e-06
4.94658e-06
5.37213e-06
5.83164e-06
6.27999e-06
6.70274e-06
7.07864e-06
7.41433e-06
7.63801e-06
7.73001e-06
7.63653e-06
7.39249e-06
2.49151e-06
2.99949e-06
3.27928e-06
3.59109e-06
3.8988e-06
4.19588e-06
4.47458e-06
4.70034e-06
4.8416e-06
4.88439e-06
4.76631e-06
4.58982e-06
1.31743e-05
1.31172e-05
1.30418e-05
1.28775e-05
1.26519e-05
1.22734e-05
1.19115e-05
1.14095e-05
1.09728e-05
1.04899e-05
1.01939e-05
1.00793e-05
1.06233e-05
1.02759e-05
9.85401e-06
9.4027e-06
8.92e-06
8.46574e-06
7.95162e-06
7.49792e-06
7.0833e-06
6.80376e-06
6.69204e-06
6.80541e-06
7.08885e-06
6.76216e-06
6.38076e-06
5.99729e-06
5.58138e-06
5.1806e-06
4.7776e-06
4.43654e-06
4.14373e-06
3.96882e-06
3.91721e-06
4.05516e-06
4.33129e-06
4.08376e-06
3.76802e-06
3.4819e-06
3.15318e-06
2.86879e-06
2.5765e-06
2.35123e-06
2.15593e-06
2.05472e-06
2.0303e-06
2.17958e-06
1.04226e-05
1.10218e-05
1.16583e-05
1.23058e-05
1.28853e-05
1.337e-05
1.37443e-05
1.40194e-05
1.42142e-05
1.43566e-05
1.44331e-05
1.45222e-05
7.21554e-06
7.81928e-06
8.39225e-06
9.02174e-06
9.6459e-06
1.02334e-05
1.07439e-05
1.11673e-05
1.15045e-05
1.16843e-05
1.16997e-05
1.13353e-05
4.41964e-06
4.96772e-06
5.3929e-06
5.85747e-06
6.31651e-06
6.75502e-06
7.14968e-06
7.50644e-06
7.74281e-06
7.83677e-06
7.72186e-06
7.45577e-06
2.4815e-06
2.99115e-06
3.27235e-06
3.58573e-06
3.89524e-06
4.19465e-06
4.47644e-06
4.70473e-06
4.84733e-06
4.88932e-06
4.76489e-06
4.58604e-06
2.00158e-06
1.82977e-06
1.5677e-06
1.37774e-06
1.11717e-06
9.4131e-07
7.14763e-07
5.82512e-07
4.16232e-07
3.48427e-07
2.73938e-07
2.88075e-07
6.58363e-07
5.61386e-07
4.3411e-07
3.49866e-07
2.37349e-07
1.83597e-07
1.00983e-07
8.4614e-08
4.07756e-08
4.62423e-08
3.54275e-08
3.84574e-08
1.49343e-07
1.12751e-07
7.81868e-08
5.44478e-08
2.99415e-08
2.23725e-08
9.66706e-09
1.05408e-08
6.70699e-09
7.65031e-09
6.91025e-09
7.31525e-09
2.19689e-08
1.49602e-08
8.83075e-09
5.71634e-09
2.83765e-09
2.88937e-09
1.82035e-09
2.02739e-09
1.74449e-09
1.87609e-09
1.87234e-09
1.90831e-09
2.29462e-09
1.5156e-09
9.56946e-10
8.1943e-10
6.16218e-10
6.58375e-10
5.69426e-10
6.05446e-10
5.94662e-10
6.09366e-10
6.17801e-10
6.2583e-10
3.28138e-10
2.66356e-10
2.48209e-10
2.35247e-10
2.27447e-10
2.29624e-10
2.24486e-10
2.28537e-10
2.30184e-10
2.33603e-10
2.37147e-10
2.39623e-10
1.01119e-10
9.49206e-11
9.63928e-11
9.50781e-11
9.53544e-11
9.54797e-11
9.57015e-11
9.64708e-11
9.74484e-11
9.87482e-11
1.00096e-10
1.00911e-10
4.19482e-11
4.20014e-11
4.22156e-11
4.22895e-11
4.24181e-11
4.25633e-11
4.27808e-11
4.31006e-11
4.35187e-11
4.40145e-11
4.45096e-11
4.47773e-11
1.91031e-11
1.92325e-11
1.93403e-11
1.9411e-11
1.94849e-11
1.95625e-11
1.96656e-11
1.97957e-11
1.99577e-11
2.01368e-11
2.03118e-11
2.03942e-11
8.9804e-12
9.03392e-12
9.07994e-12
9.111e-12
9.14388e-12
9.17564e-12
9.21571e-12
9.26243e-12
9.31897e-12
9.37793e-12
9.43515e-12
9.459e-12
4.48299e-12
4.5003e-12
4.51627e-12
4.52707e-12
4.53871e-12
4.54926e-12
4.56206e-12
4.57569e-12
4.59173e-12
4.60743e-12
4.62238e-12
4.6273e-12
2.78309e-12
2.78789e-12
2.79219e-12
2.79602e-12
2.79959e-12
2.80285e-12
2.80583e-12
2.80842e-12
2.81054e-12
2.81208e-12
2.81301e-12
2.81334e-12
1.14141e-06
1.37987e-06
1.52804e-06
1.71302e-06
1.90358e-06
2.09883e-06
2.2707e-06
2.40153e-06
2.47331e-06
2.47621e-06
2.34581e-06
2.22566e-06
5.81471e-07
5.47548e-07
5.93182e-07
6.62832e-07
7.39021e-07
8.19041e-07
8.88439e-07
9.38861e-07
9.59882e-07
9.3097e-07
8.5947e-07
7.76117e-07
2.67147e-07
1.73737e-07
1.89256e-07
2.0712e-07
2.27032e-07
2.47748e-07
2.63968e-07
2.73225e-07
2.72693e-07
2.5117e-07
2.25317e-07
1.87151e-07
1.13536e-07
4.37306e-08
4.76025e-08
5.03442e-08
5.35007e-08
5.657e-08
5.82476e-08
5.80169e-08
5.38372e-08
4.88504e-08
3.99551e-08
3.12853e-08
4.6972e-08
8.64886e-09
9.50539e-09
9.64657e-09
9.83994e-09
9.91229e-09
9.47699e-09
8.71379e-09
7.62678e-09
6.40955e-09
4.97753e-09
3.53179e-09
1.99346e-08
1.45452e-09
1.60876e-09
1.54211e-09
1.53141e-09
1.40335e-09
1.28093e-09
1.08445e-09
9.15661e-10
7.08683e-10
5.55473e-10
4.07233e-10
8.78882e-09
2.45418e-10
2.59399e-10
2.42092e-10
2.37895e-10
2.07341e-10
1.93986e-10
1.62355e-10
1.50011e-10
1.24492e-10
1.19021e-10
1.03837e-10
4.0638e-09
5.31514e-11
4.94495e-11
5.08371e-11
5.084e-11
4.75039e-11
4.75912e-11
4.46391e-11
4.51227e-11
4.37033e-11
4.43074e-11
4.40894e-11
1.88407e-09
1.90995e-11
1.49814e-11
1.69138e-11
1.77776e-11
1.81663e-11
1.86945e-11
1.90818e-11
1.95809e-11
1.9954e-11
2.03455e-11
2.06022e-11
8.81681e-10
9.00153e-12
7.21338e-12
7.93386e-12
8.46247e-12
8.76889e-12
9.08805e-12
9.33466e-12
9.57369e-12
9.75489e-12
9.91879e-12
1.00287e-11
3.54363e-10
4.96797e-12
4.21608e-12
4.49896e-12
4.70269e-12
4.81439e-12
4.9262e-12
5.00806e-12
5.08623e-12
5.14337e-12
5.19562e-12
5.22999e-12
2.30247e-10
4.58049e-12
3.17985e-12
3.24032e-12
3.27522e-12
3.30133e-12
3.32308e-12
3.34052e-12
3.35492e-12
3.36639e-12
3.37579e-12
3.3833e-12
2.0031e-06
1.83061e-06
1.57089e-06
1.37936e-06
1.12101e-06
9.42058e-07
7.184e-07
5.81665e-07
4.19571e-07
3.46386e-07
2.76936e-07
2.88629e-07
6.59602e-07
5.6231e-07
4.35242e-07
3.50404e-07
2.38301e-07
1.83564e-07
1.01834e-07
8.40988e-08
4.07952e-08
4.62879e-08
3.56702e-08
3.85436e-08
1.49695e-07
1.12979e-07
7.84054e-08
5.45272e-08
3.00916e-08
2.23199e-08
9.66536e-09
1.05413e-08
6.73098e-09
7.67589e-09
6.94063e-09
7.3386e-09
2.20284e-08
1.4994e-08
8.8602e-09
5.72469e-09
2.85839e-09
2.89654e-09
1.83069e-09
2.03785e-09
1.75658e-09
1.88759e-09
1.88384e-09
1.91961e-09
2.30609e-09
1.52418e-09
9.65396e-10
8.26078e-10
6.24539e-10
6.65495e-10
5.76771e-10
6.12724e-10
6.0202e-10
6.16691e-10
6.25155e-10
6.33207e-10
3.33636e-10
2.71598e-10
2.53483e-10
2.40371e-10
2.32739e-10
2.34797e-10
2.29667e-10
2.3372e-10
2.35383e-10
2.38826e-10
2.42399e-10
2.44896e-10
1.04819e-10
9.86189e-11
1.00096e-10
9.87778e-11
9.90591e-11
9.91817e-11
9.9409e-11
1.00189e-10
1.01182e-10
1.02504e-10
1.03874e-10
1.04702e-10
4.45075e-11
4.45705e-11
4.47912e-11
4.48687e-11
4.50009e-11
4.515e-11
4.53738e-11
4.57028e-11
4.61332e-11
4.66439e-11
4.71537e-11
4.74296e-11
2.08284e-11
2.09649e-11
2.1078e-11
2.1152e-11
2.12293e-11
2.13105e-11
2.14183e-11
2.15546e-11
2.17245e-11
2.19123e-11
2.2096e-11
2.21825e-11
1.01221e-11
1.01794e-11
1.02286e-11
1.02618e-11
1.02968e-11
1.03307e-11
1.03735e-11
1.04235e-11
1.04841e-11
1.05474e-11
1.06088e-11
1.06345e-11
5.26063e-12
5.2795e-12
5.2969e-12
5.30863e-12
5.32129e-12
5.33275e-12
5.34669e-12
5.36156e-12
5.37911e-12
5.39631e-12
5.4127e-12
5.41808e-12
3.38963e-12
3.39493e-12
3.39966e-12
3.40388e-12
3.40782e-12
3.4114e-12
3.41468e-12
3.41752e-12
3.41986e-12
3.42154e-12
3.42256e-12
3.42292e-12
1.1454e-06
1.38473e-06
1.53337e-06
1.71889e-06
1.90997e-06
2.1057e-06
2.27797e-06
2.40909e-06
2.48106e-06
2.48407e-06
2.35374e-06
2.23314e-06
5.83444e-07
5.49412e-07
5.95195e-07
6.65078e-07
7.41523e-07
8.21812e-07
8.91445e-07
9.42043e-07
9.63143e-07
9.34149e-07
8.62414e-07
7.78751e-07
2.68041e-07
1.74318e-07
1.89891e-07
2.07817e-07
2.27797e-07
2.48584e-07
2.6486e-07
2.74149e-07
2.73613e-07
2.52014e-07
2.26069e-07
1.87765e-07
1.13909e-07
4.38733e-08
4.77588e-08
5.05101e-08
5.36776e-08
5.67574e-08
5.84406e-08
5.82087e-08
5.40142e-08
4.90103e-08
4.0084e-08
3.13851e-08
4.71248e-08
8.677e-09
9.53645e-09
9.67828e-09
9.8724e-09
9.94507e-09
9.50841e-09
8.74255e-09
7.65203e-09
6.43066e-09
4.99399e-09
3.54353e-09
1.99991e-08
1.45986e-09
1.61461e-09
1.54786e-09
1.53711e-09
1.40871e-09
1.28587e-09
1.0888e-09
9.19455e-10
7.1182e-10
5.5813e-10
4.09414e-10
8.81737e-09
2.469e-10
2.60942e-10
2.43619e-10
2.39414e-10
2.08788e-10
1.95393e-10
1.63677e-10
1.51294e-10
1.25703e-10
1.20214e-10
1.04986e-10
4.07717e-09
5.39015e-11
5.02209e-11
5.16178e-11
5.16351e-11
4.83032e-11
4.83973e-11
4.5451e-11
4.59368e-11
4.45238e-11
4.51299e-11
4.49179e-11