/*--------------------------------*- C++ -*----------------------------------*\
| =========                 |                                                 |
| \\      /  F ield         | OpenFOAM: The Open Source CFD Toolbox           |
|  \\    /   O peration     | Version:  2212                                  |
|   \\  /    A nd           | Website:  www.openfoam.com                      |
|    \\/     M anipulation  |                                                 |
\*---------------------------------------------------------------------------*/
FoamFile
{
    version     2.0;
    format      ascii;
    arch        "LSB;label=32;scalar=64";
    class       volVectorField;
    location    "0.06";
    object      U;
}
// * * * * * * * * * * * * * * * * * * * * * * * * * * * * * * * * * * * * * //

dimensions      [0 1 -1 0 0 0 0];

internalField   nonuniform List<vector> 
3072
(
(0.350329 21.7238 0)
(0.950204 18.6827 0)
(2.65479 17.1407 4.52745e-19)
(4.06002 16.142 -7.60075e-15)
(5.39771 15.4679 1.21892e-14)
(6.24503 15.4558 -5.69595e-15)
(7.74385 17.399 -2.70689e-15)
(14.762 16.9254 -1.39305e-14)
(27.5729 15.6983 2.2701e-14)
(32.7575 21.5194 -8.48181e-15)
(35.1089 23.5926 5.59359e-15)
(38.725 25.4291 2.65508e-15)
(-5.71104 25.6494 -3.32087e-16)
(-3.188 22.1392 -2.54476e-15)
(0.741136 22.5789 1.30163e-15)
(3.76746 22.2801 0)
(7.23818 24.1696 5.29735e-15)
(13.9919 24.9705 -7.84981e-15)
(23.2101 27.4055 0)
(29.5553 29.0557 0)
(32.1666 28.9631 0)
(32.9091 29.9012 7.62528e-18)
(33.3676 30.0681 -1.17204e-14)
(34.7899 30.2264 5.20761e-18)
(-5.46467 29.1694 3.06626e-16)
(-1.58167 26.1789 0)
(4.25531 27.4725 0)
(10.3372 27.6843 -6.87996e-15)
(18.1143 29.5419 4.60931e-15)
(25.5063 30.7986 -6.82256e-15)
(30.3217 31.1815 8.63595e-15)
(32.9261 30.6487 0)
(34.1339 29.5137 0)
(34.4467 28.8527 -2.9811e-15)
(34.9177 28.1802 -2.84292e-15)
(35.611 27.5211 8.32373e-15)
(-5.33031 32.7672 -1.12375e-15)
(0.304891 31.4644 -2.08806e-15)
(7.85664 33.328 2.05799e-15)
(15.5029 33.6312 -2.07266e-15)
(22.7802 34.1709 8.15204e-15)
(27.8337 33.5358 -7.74617e-15)
(30.6114 32.4981 -3.37449e-15)
(32.2957 31.0321 -8.9386e-15)
(33.0603 29.723 -2.21652e-18)
(33.3578 28.7009 5.24736e-15)
(33.7148 27.7627 4.97018e-15)
(34.087 26.8525 -4.81535e-15)
(-1.52287 34.8679 0)
(3.65371 35.3861 9.45287e-16)
(11.1542 36.8603 -1.85655e-15)
(18.4042 36.7279 3.68795e-15)
(24.3307 36.0344 4.13627e-18)
(27.7774 34.5017 3.19393e-15)
(29.8506 32.7868 2.87744e-15)
(30.856 31.0974 2.77134e-15)
(31.3568 29.5398 -5.1842e-15)
(31.6748 28.2265 4.83467e-15)
(32.0241 27.0565 -6.83872e-15)
(32.4048 25.9781 8.69304e-15)
(0.498427 37.2041 -9.51336e-16)
(6.14227 38.151 8.61294e-16)
(13.1239 39.0711 3.33295e-15)
(19.4214 38.3878 0)
(24.1013 36.8791 -6.20228e-15)
(26.7963 34.8652 5.60613e-15)
(28.297 32.8694 0)
(29.1581 30.9327 -4.97246e-15)
(29.6868 29.2064 4.6468e-15)
(30.0717 27.7107 0)
(30.4461 26.3854 2.41703e-18)
(30.8348 25.19 3.99351e-15)
(3.49934 39.1209 0)
(8.32286 40.7491 -1.58605e-15)
(14.3377 40.8489 1.51733e-15)
(19.4444 39.7071 0)
(23.0892 37.6174 -2.7529e-15)
(25.245 35.2627 4.17924e-18)
(26.5709 32.9729 4.80769e-15)
(27.4109 30.8534 4.51657e-15)
(27.9965 28.9622 -4.26368e-15)
(28.4579 27.2973 4.0559e-15)
(28.8824 25.8211 -3.87966e-15)
(29.3 24.5003 -1.12152e-14)
(5.24162 41.483 0)
(9.67525 43.2723 1.45691e-15)
(14.661 42.5801 -2.74135e-15)
(18.6859 41.0077 2.60722e-15)
(21.6173 38.4663 0)
(23.525 35.802 -4.61676e-15)
(24.7987 33.2485 4.36755e-15)
(25.6863 30.9148 9.10363e-19)
(26.349 28.8286 -7.91257e-15)
(26.8821 26.9813 -3.79658e-15)
(27.3509 25.3432 -2.30318e-18)
(27.7885 23.8842 7.1045e-15)
(7.57345 43.047 0)
(10.7197 45.6429 -1.34035e-15)
(14.3524 44.0782 -2.47082e-15)
(17.4279 42.1725 -2.31738e-15)
(19.8558 39.3156 4.38972e-15)
(21.6509 36.3865 0)
(22.9594 33.5836 0)
(23.9332 31.0226 0)
(24.6809 28.7279 0)
(25.2772 26.6903 3.59668e-15)
(25.7786 24.8835 -3.50055e-15)
(26.2219 23.2791 3.41603e-15)
(8.16959 46.1916 0)
(10.6902 47.7816 1.17861e-15)
(13.1791 45.1435 -3.36896e-18)
(15.6595 42.7053 2.09467e-15)
(17.7752 39.5865 2.00782e-15)
(19.52 36.4706 -3.85592e-15)
(20.8976 33.5119 0)
(21.9744 30.8015 -1.69929e-18)
(22.8147 28.3625 -1.06058e-14)
(23.4768 26.1874 0)
(24.0116 24.2542 6.76323e-15)
(24.4597 22.537 -3.3141e-15)
(10.9417 46.8173 0)
(9.88481 47.452 1.09106e-15)
(11.1147 44.0208 4.05015e-15)
(13.1588 41.1686 -3.89039e-15)
(15.1177 38.0923 -5.63023e-15)
(16.8938 35.0916 9.08231e-15)
(18.3867 32.2619 -1.50509e-18)
(19.596 29.6454 -3.46284e-15)
(20.5525 27.2606 3.38654e-15)
(21.3009 25.108 -6.65917e-15)
(21.8883 23.1748 -9.81345e-15)
(22.3584 21.4442 9.66136e-15)
(4.77842 43.286 -5.72865e-16)
(6.67464 41.9766 -4.13797e-15)
(7.80562 38.3797 9.51123e-16)
(9.80758 35.9403 0)
(11.8723 33.6644 0)
(13.7862 31.4085 2.8427e-18)
(15.4243 29.1951 1.0088e-14)
(16.7718 27.0554 6.59775e-15)
(17.8469 25.0274 0)
(18.6889 23.1373 6.39805e-15)
(19.341 21.396 0)
(19.849 19.8048 3.7702e-18)
(41.3285 25.0063 -1.86538e-14)
(43.747 24.6367 8.05534e-15)
(45.0499 23.1413 -8.14005e-15)
(45.9016 21.7268 -2.73298e-15)
(45.7233 19.7891 -2.70216e-15)
(45.0868 17.8702 0)
(43.394 15.766 0)
(41.0426 13.7523 5.35217e-15)
(37.6739 11.7956 -5.40002e-15)
(33.4069 9.69788 0)
(27.7871 6.35397 0)
(25.3103 -0.101085 -3.70511e-16)
(35.7843 30.0918 6.9659e-15)
(37.0392 29.5518 0)
(38.1785 28.5518 -9.75776e-18)
(39.2587 27.1801 3.37878e-15)
(40.0578 25.4984 1.69558e-15)
(40.3929 23.7691 6.91085e-15)
(40.154 22.0918 -1.06907e-14)
(39.3322 20.6166 1.87203e-15)
(37.9471 19.4792 0)
(35.2635 18.5664 0)
(31.8655 17.4508 0)
(31.872 14.2484 -4.03514e-23)
(36.2252 26.8037 2.72183e-15)
(36.9216 25.9921 -7.94576e-15)
(37.5863 25.064 2.61814e-15)
(38.1324 24.0781 5.24792e-15)
(38.4477 23.0918 -5.30756e-15)
(38.4655 22.1844 0)
(38.1465 21.4422 0)
(37.4876 20.9653 -1.59799e-18)
(36.5234 20.8888 1.60193e-15)
(34.849 21.102 0)
(32.2694 21.1646 0)
(33.5781 21.0267 0)
(34.4687 25.9926 3.17077e-18)
(34.9523 25.1445 6.82047e-15)
(35.4345 24.2777 4.46453e-15)
(35.8547 23.4248 -4.43492e-15)
(36.1496 22.6435 0)
(36.2768 22.0099 2.25427e-15)
(36.2102 21.6136 0)
(35.9493 21.5021 3.74935e-15)
(35.5627 21.7948 -1.32719e-15)
(34.7617 22.6375 0)
(32.7207 23.8891 -7.75589e-16)
(35.7467 25.8092 -1.0324e-15)
(32.8205 24.9855 -4.17856e-15)
(33.274 24.0535 0)
(33.7189 23.1813 0)
(34.124 22.3944 0)
(34.4614 21.7364 0)
(34.7145 21.2746 -3.81595e-15)
(34.8645 21.0922 -1.31317e-18)
(34.9497 21.2226 -2.15137e-15)
(34.9545 21.8232 0)
(34.8495 23.0055 -1.17493e-15)
(33.5225 24.9072 7.31487e-16)
(37.5253 28.0044 9.52453e-16)
(31.2484 24.1073 -2.22974e-18)
(31.6848 23.1207 -7.50517e-15)
(32.1241 22.2341 3.67942e-15)
(32.5524 21.4687 6.44023e-20)
(32.9605 20.861 2.13979e-18)
(33.3504 20.4623 5.44944e-15)
(33.7395 20.3331 -1.37089e-18)
(34.1485 20.5416 -5.74044e-15)
(34.5959 21.2062 -2.04731e-15)
(35.1283 22.5033 1.15168e-15)
(34.6769 24.8797 -1.3815e-15)
(39.2777 29.0487 -4.41396e-16)
(29.7251 23.3154 1.08776e-14)
(30.1622 22.2534 3.53885e-15)
(30.609 21.3166 0)
(31.0674 20.5203 0)
(31.5458 19.893 2.02886e-18)
(32.0627 19.4752 -3.39049e-15)
(32.6496 19.3172 5.11885e-15)
(33.3459 19.4806 -1.17813e-18)
(34.1873 20.0732 1.83443e-15)
(35.2761 21.2878 0)
(35.6593 23.6141 -2.09833e-18)
(40.5878 28.5386 4.1113e-16)
(28.2149 22.5831 -3.46184e-15)
(28.6435 21.4265 -3.38766e-15)
(29.0854 20.4121 3.33418e-15)
(29.5563 19.5487 -3.28805e-15)
(30.0796 18.855 -6.32738e-20)
(30.6897 18.3596 6.45917e-15)
(31.4355 18.0994 -3.21763e-15)
(32.3814 18.1253 1.624e-15)
(33.5902 18.5281 0)
(35.2347 19.5111 9.20527e-16)
(36.5081 21.6363 5.5728e-16)
(41.5947 26.8616 -1.53544e-15)
(26.6341 21.8542 3.3444e-15)
(27.0377 20.5922 -3.28445e-15)
(27.4547 19.4852 -3.23284e-15)
(27.9123 18.5335 -6.38589e-15)
(28.4463 17.7447 6.31027e-15)
(29.1047 17.1331 -6.24005e-15)
(29.9542 16.7176 0)
(31.0849 16.5296 -1.53857e-15)
(32.594 16.6266 0)
(34.7255 17.1888 0)
(36.908 18.8135 0)
(42.0388 23.6479 1.42771e-15)
(24.8543 21.0137 3.25551e-15)
(25.2256 19.6645 -6.41101e-15)
(25.6052 18.4759 6.32141e-15)
(26.029 17.44 6.24092e-15)
(26.5428 16.5528 3.08307e-15)
(27.2042 15.8139 0)
(28.0948 15.2182 0)
(29.3254 14.77 2.96856e-15)
(31.0334 14.4781 0)
(33.5503 14.472 -7.78863e-16)
(36.4481 15.211 4.62933e-16)
(41.7735 18.8698 -2.00663e-15)
(22.7491 19.9001 -6.34548e-15)
(23.0963 18.5244 6.25411e-15)
(23.4389 17.3015 -6.1755e-15)
(23.8191 16.218 -1.52666e-14)
(24.2904 15.2598 -1.76685e-18)
(24.9152 14.4118 1.09571e-18)
(25.7861 13.6463 -2.94572e-15)
(27.0148 12.9334 -2.89539e-15)
(28.7781 12.209 0)
(31.4861 11.5444 2.19624e-15)
(34.7136 10.9379 4.25276e-16)
(40.3324 12.0493 -3.27507e-19)
(20.252 18.3627 -3.64214e-18)
(20.5886 17.0588 0)
(20.9028 15.8806 0)
(21.2402 14.8141 2.98291e-15)
(21.659 13.8415 8.86226e-15)
(22.2179 12.9366 -2.92384e-15)
(23.0181 12.0481 -1.59752e-18)
(24.1501 11.1174 -1.4237e-15)
(25.8149 9.99493 -1.39662e-15)
(28.3173 8.64284 -1.39576e-15)
(32.0502 6.35838 0)
(37.2681 -1.48062 5.50922e-16)
(21.7775 -0.641758 -3.82589e-16)
(18.8651 -1.1575 0)
(17.4051 -2.78054 -4.76479e-19)
(16.2894 -4.25887 0)
(15.7273 -5.52403 6.10696e-15)
(15.4241 -6.62913 -5.75111e-15)
(16.696 -7.4699 0)
(17.7381 -12.2288 -1.11745e-14)
(14.6464 -24.8882 1.99439e-14)
(19.652 -31.9781 -1.41773e-14)
(22.5041 -34.0228 -2.83901e-15)
(24.2142 -37.704 -2.66939e-15)
(25.5911 5.38541 -1.66339e-15)
(22.1894 3.03733 -1.27698e-15)
(22.5435 -0.693654 3.91178e-15)
(22.0347 -3.7488 0)
(23.4966 -6.68102 -5.29261e-15)
(24.5845 -11.9779 5.29695e-15)
(25.9954 -21.0494 0)
(28.3449 -28.315 4.58865e-15)
(28.0655 -31.6356 -1.28925e-14)
(28.9273 -32.7115 7.98602e-15)
(29.2333 -32.9313 8.0664e-15)
(29.3122 -34.3386 -1.11348e-14)
(28.9729 5.15259 3.06594e-16)
(25.9351 1.68554 0)
(26.9476 -3.72825 -2.28592e-15)
(26.9963 -9.15456 0)
(28.3776 -16.1204 0)
(29.9426 -23.9194 -4.60726e-15)
(30.3521 -29.3176 1.77074e-14)
(30.2196 -32.3794 -1.09545e-14)
(28.929 -33.7804 3.43732e-15)
(28.1977 -34.2133 0)
(27.5335 -34.569 5.90637e-15)
(26.8328 -35.2403 -2.84125e-15)
(32.6344 5.59464 -1.1271e-15)
(31.0096 0.394985 1.04909e-15)
(32.6829 -6.68625 2.06395e-15)
(32.89 -13.9966 4.16463e-15)
(33.4638 -21.4096 -4.13775e-15)
(33.0808 -27.073 -3.98442e-15)
(32.041 -30.2157 0)
(30.7084 -31.9176 0)
(29.3015 -32.8131 2.91746e-15)
(28.227 -33.1551 0)
(27.2736 -33.4673 4.09553e-18)
(26.3451 -33.8609 2.47649e-15)
(34.7844 2.03879 1.54937e-15)
(35.0508 -2.79197 -9.52482e-16)
(36.5451 -10.0553 -1.87812e-15)
(36.4771 -17.2712 0)
(35.9101 -23.5611 0)
(34.439 -27.3853 3.33677e-15)
(32.6546 -29.5184 0)
(30.9259 -30.6312 -5.74798e-15)
(29.2998 -31.1793 -2.7059e-15)
(27.9177 -31.5085 5.05097e-15)
(26.7052 -31.836 -7.14594e-15)
(25.5908 -32.2084 4.53964e-15)
(37.3055 0.270679 -6.3064e-19)
(38.0509 -5.2174 -8.70587e-16)
(39.1309 -12.1578 1.696e-15)
(38.5319 -18.5694 1.81771e-18)
(37.0719 -23.5628 3.20287e-15)
(35.0017 -26.4499 -5.82906e-15)
(32.9302 -28.027 5.54641e-15)
(30.9222 -28.9593 4.87708e-18)
(29.1111 -29.5287 0)
(27.539 -29.9299 0)
(26.1569 -30.3037 8.68721e-15)
(24.9139 -30.6957 4.79673e-19)
(39.2636 -2.85603 -8.87987e-16)
(40.8548 -7.52457 -8.02665e-16)
(41.1357 -13.5598 0)
(40.0769 -18.764 -2.98651e-15)
(37.9836 -22.6151 2.83293e-15)
(35.556 -24.908 7.95007e-15)
(33.187 -26.3155 4.97185e-15)
(30.9848 -27.2245 6.6746e-18)
(29.0066 -27.8549 -8.85834e-15)
(27.2627 -28.3459 4.21486e-15)
(25.72 -28.7904 4.04488e-15)
(24.3414 -29.2294 2.39918e-18)
(41.6465 -4.67081 -5.39681e-19)
(43.4778 -9.0227 1.46987e-15)
(42.9694 -14.0227 0)
(41.4904 -18.1008 -2.65404e-15)
(38.9531 -21.1747 -2.50526e-15)
(36.234 -23.199 4.49395e-18)
(33.6082 -24.5597 -8.98506e-15)
(31.1916 -25.5208 3.35782e-18)
(29.0187 -26.2406 -2.29922e-18)
(27.0893 -26.819 3.94035e-15)
(25.3767 -27.3269 -3.80157e-15)
(23.8495 -27.8041 2.0409e-18)
(43.2009 -7.18527 -3.87379e-16)
(45.8976 -10.233 6.72206e-16)
(44.5058 -13.8498 -3.74358e-15)
(42.7182 -16.9482 2.35112e-15)
(39.8966 -19.4672 0)
(36.943 -21.3576 0)
(34.0833 -22.7513 4.10911e-15)
(31.4476 -23.8035 7.92659e-15)
(29.0692 -24.6206 -3.83583e-15)
(26.9472 -25.2785 -3.72376e-15)
(25.0594 -25.8372 -3.6291e-15)
(23.3766 -26.3377 0)
(46.3746 -7.93372 -7.20171e-16)
(48.0252 -10.3572 1.77763e-15)
(45.5788 -12.8017 4.4449e-15)
(43.2777 -15.2781 0)
(40.2244 -17.446 4.0903e-15)
(37.1145 -19.2639 0)
(34.1233 -20.7239 2.5602e-18)
(31.3563 -21.8863 -3.73342e-15)
(28.8445 -22.8099 3.6536e-15)
(26.5885 -23.5508 0)
(24.5712 -24.1607 0)
(22.7681 -24.6824 -6.88265e-15)
(46.8869 -10.8538 1.91225e-23)
(47.7377 -9.68268 1.10368e-15)
(44.46 -10.8841 3.08547e-18)
(41.7395 -12.887 -3.96454e-15)
(38.7413 -14.8486 -1.91704e-15)
(35.7763 -16.6782 -1.86313e-15)
(32.9458 -18.2529 -3.6401e-15)
(30.3 -19.556 -1.06999e-14)
(27.8624 -20.6087 -3.49853e-15)
(25.6387 -21.451 -6.88973e-15)
(23.6225 -22.1289 6.78184e-15)
(21.8008 -22.6865 6.67587e-15)
(43.5122 -4.80911 -1.15042e-15)
(42.3187 -6.63451 -5.20466e-16)
(38.8584 -7.63082 2.60789e-18)
(36.4918 -9.5765 3.74919e-15)
(34.3038 -11.646 0)
(32.1131 -13.6193 -3.5405e-15)
(29.933 -15.3465 3.46623e-15)
(27.7931 -16.7956 3.40473e-15)
(25.7333 -17.9751 -1.00798e-14)
(23.7835 -18.9192 6.62492e-15)
(21.9609 -19.671 -6.54052e-15)
(20.2737 -20.2744 0)
(24.097 -40.3328 8.04425e-15)
(23.7101 -42.785 -2.16214e-14)
(22.4132 -44.1569 5.44376e-15)
(21.0192 -45.0448 1.37439e-14)
(19.2584 -44.9184 -1.36118e-14)
(17.3844 -44.3396 2.70169e-15)
(15.4175 -42.7251 -1.38826e-18)
(13.4474 -40.4508 -2.6883e-15)
(11.5719 -37.1857 -5.42501e-15)
(9.5097 -33.0445 0)
(6.17484 -27.5169 0)
(-0.178413 -25.1422 -5.54871e-16)
(29.3269 -35.2431 -1.09146e-19)
(28.8261 -36.4612 7.02459e-15)
(27.9138 -37.5675 -9.69745e-18)
(26.6131 -38.6332 0)
(24.9695 -39.4644 5.25917e-15)
(23.2802 -39.8389 0)
(21.6406 -39.6531 3.65838e-15)
(20.2017 -38.8881 5.74485e-15)
(19.1058 -37.5712 -4.0981e-15)
(18.2189 -34.9991 0)
(17.0727 -31.6449 0)
(13.5997 -31.7503 -4.64413e-20)
(26.1336 -35.8359 2.81356e-15)
(25.342 -36.5176 -2.75461e-15)
(24.4441 -37.1661 2.72359e-15)
(23.4885 -37.7178 0)
(22.5363 -38.0503 -2.7545e-15)
(21.6589 -38.0954 5.6476e-15)
(20.9475 -37.8124 -7.34974e-15)
(20.4927 -37.1974 -7.77353e-15)
(20.4354 -36.3007 4.89006e-15)
(20.644 -34.7134 0)
(20.6772 -32.168 8.99479e-16)
(20.4909 -33.5688 1.02342e-20)
(25.474 -34.1988 2.43654e-15)
(24.6245 -34.6522 -4.74925e-15)
(23.7636 -35.124 4.65686e-15)
(22.9159 -35.5508 -4.6202e-15)
(22.1376 -35.8657 0)
(21.5036 -36.0238 2.32516e-15)
(21.1153 -35.9944 2.39987e-15)
(20.994 -35.7819 1.28629e-15)
(21.2831 -35.4377 -2.69261e-15)
(22.1362 -34.6862 0)
(23.3482 -32.6315 -7.9505e-16)
(25.0883 -35.743 1.29641e-15)
(24.573 -32.6055 4.3676e-15)
(23.6223 -33.0581 -2.12196e-15)
(22.734 -33.5135 0)
(21.9325 -33.9386 0)
(21.2603 -34.3031 2.04866e-15)
(20.7816 -34.5906 -1.98421e-15)
(20.5892 -34.7721 -2.5025e-18)
(20.7067 -34.8939 0)
(21.2997 -34.934 -1.1931e-15)
(22.4866 -34.8501 1.20041e-15)
(24.3591 -33.5347 -1.49275e-15)
(27.3811 -37.604 0)
(23.7946 -31.1128 -8.04116e-15)
(22.7768 -31.5646 3.91227e-15)
(21.8606 -32.0276 7.67097e-15)
(21.0664 -32.4859 4.90214e-20)
(20.4301 -32.9278 -9.40978e-15)
(20.0032 -33.3519 -3.77727e-15)
(19.8486 -33.7732 -2.35998e-18)
(20.0336 -34.2099 0)
(20.6815 -34.6742 0)
(21.9661 -35.2283 -1.1823e-15)
(24.3307 -34.7174 -7.0323e-16)
(28.4341 -39.3829 4.43231e-16)
(23.107 -29.6788 3.77949e-15)
(22.0002 -30.1475 -7.37648e-15)
(21.0206 -30.6311 -3.6147e-15)
(20.1826 -31.1291 -1.91077e-18)
(19.5143 -31.6473 3.53102e-15)
(19.0573 -32.2011 3.51809e-15)
(18.865 -32.8187 1.76942e-15)
(19.0005 -33.5363 1.80409e-15)
(19.5767 -34.3828 -1.89478e-15)
(20.7888 -35.4697 0)
(23.1216 -35.783 1.25737e-15)
(28.0683 -40.756 -8.26313e-16)
(22.4861 -28.2728 0)
(21.2712 -28.7476 3.52614e-15)
(20.201 -29.2379 0)
(19.2835 -29.7568 -1.89852e-18)
(18.5375 -30.3249 -4.76943e-20)
(17.9929 -30.9732 6.70283e-15)
(17.6903 -31.7469 -1.66636e-15)
(17.6848 -32.7064 -3.35951e-15)
(18.0733 -33.9065 -1.73518e-15)
(19.0622 -35.5263 9.45704e-16)
(21.2049 -36.7051 -1.70654e-15)
(26.5262 -41.794 7.7038e-16)
(21.8762 -26.8085 3.47815e-15)
(20.5421 -27.2717 -3.416e-15)
(19.3661 -27.7478 -3.36408e-15)
(18.3482 -28.2606 3.31806e-15)
(17.4962 -28.843 3.27562e-15)
(16.8262 -29.5395 -9.71023e-15)
(16.3614 -30.4124 0)
(16.1397 -31.5484 1.59132e-15)
(16.2275 -33.0353 1.61392e-15)
(16.8122 -35.1212 0)
(18.4938 -37.2066 1.55164e-15)
(23.5156 -42.2721 -3.59226e-16)
(21.1575 -25.1503 0)
(19.7232 -25.5942 -6.66086e-15)
(18.4529 -26.0426 -3.28546e-15)
(17.3391 -26.5278 -6.47598e-15)
(16.3784 -27.0923 3.19811e-15)
(15.5728 -27.79 3.15507e-15)
(14.9222 -28.6974 0)
(14.4381 -29.9216 0)
(14.1419 -31.5906 0)
(14.1695 -34.0396 0)
(15.013 -36.8408 -4.71002e-16)
(18.9677 -42.0259 -6.71244e-16)
(20.1597 -23.1637 3.29094e-15)
(18.6876 -23.5951 3.24285e-15)
(17.3719 -24.0154 1.28123e-14)
(16.2005 -24.4617 3.16577e-15)
(15.1601 -24.9842 1.25096e-14)
(14.2389 -25.6416 -3.08922e-15)
(13.4141 -26.5194 -3.04532e-15)
(12.6651 -27.7255 0)
(11.9413 -29.427 -2.94752e-15)
(11.323 -32.0428 -1.50139e-15)
(10.8633 -35.1541 -8.64359e-16)
(12.4022 -40.5928 0)
(18.7244 -20.7729 0)
(17.3132 -21.2026 0)
(16.0328 -21.6017 -1.24812e-14)
(14.871 -22.0088 -9.25425e-15)
(13.8105 -22.4774 -3.04954e-15)
(12.828 -23.0597 0)
(11.8812 -23.8488 2.98284e-15)
(10.9172 -24.9286 0)
(9.8002 -26.492 -1.6623e-18)
(8.50259 -28.8651 1.42926e-15)
(6.41686 -32.4596 3.86539e-16)
(-0.910968 -37.3876 -1.63729e-19)
(-0.350357 -21.7238 -1.90843e-16)
(-0.950216 -18.6827 -2.98154e-15)
(-2.65479 -17.1408 3.03977e-15)
(-4.06002 -16.142 -3.04127e-15)
(-5.39771 -15.4679 0)
(-6.24506 -15.4558 2.84927e-15)
(-7.74379 -17.3989 0)
(-14.7617 -16.9255 2.78796e-15)
(-27.5727 -15.6982 -8.50701e-15)
(-32.7576 -21.5192 8.48986e-15)
(-35.1089 -23.5925 1.6759e-14)
(-38.725 -25.4291 -5.28104e-15)
(5.71102 -25.6494 0)
(3.188 -22.1392 -2.54476e-15)
(-0.74113 -22.5788 2.6023e-15)
(-3.76746 -22.28 2.6079e-15)
(-7.23811 -24.1695 -5.29735e-15)
(-13.9917 -24.9705 -7.79553e-19)
(-23.21 -27.4054 -4.9149e-15)
(-29.5553 -29.0556 -1.11151e-14)
(-32.1666 -28.9631 1.29736e-14)
(-32.9091 -29.9011 -4.04284e-15)
(-33.3676 -30.0681 8.81778e-18)
(-34.7899 -30.2263 5.52231e-18)
(5.46466 -29.1694 0)
(1.58171 -26.1789 0)
(-4.25523 -27.4725 0)
(-10.3371 -27.6842 -2.29422e-15)
(-18.1141 -29.5417 0)
(-25.5062 -30.7985 -2.27831e-15)
(-30.3217 -31.1814 4.31632e-15)
(-32.9262 -30.6487 7.05469e-15)
(-34.134 -29.5136 -3.3044e-15)
(-34.4468 -28.8527 -5.95981e-15)
(-34.9178 -28.1801 -8.53301e-15)
(-35.611 -27.5211 8.32374e-15)
(5.3304 -32.7672 0)
(-0.304764 -31.4643 -1.04455e-15)
(-7.85647 -33.3279 2.05963e-15)
(-15.5027 -33.6311 2.0685e-15)
(-22.7801 -34.1708 0)
(-27.8337 -33.5357 -7.7534e-15)
(-30.6114 -32.4981 6.7411e-15)
(-32.2958 -31.032 0)
(-33.0603 -29.7229 5.59594e-15)
(-33.3579 -28.7009 -7.86932e-15)
(-33.7149 -27.7626 4.96624e-15)
(-34.087 -26.8525 4.13298e-18)
(1.523 -34.8679 -6.14426e-23)
(-3.65355 -35.386 1.89202e-15)
(-11.154 -36.8603 3.02426e-18)
(-18.4041 -36.7279 0)
(-24.3307 -36.0344 -3.54883e-15)
(-27.7775 -34.5017 6.38983e-15)
(-29.8507 -32.7868 0)
(-30.8561 -31.0974 -2.77595e-15)
(-31.3569 -29.5398 -2.59467e-15)
(-31.6749 -28.2265 4.83469e-15)
(-32.0241 -27.0565 0)
(-32.4049 -25.9781 -4.34185e-15)
(-0.498252 -37.2041 4.75336e-16)
(-6.14211 -38.151 1.89831e-18)
(-13.1238 -39.0711 -1.66513e-15)
(-19.4214 -38.3878 -6.53515e-15)
(-24.1013 -36.8791 -1.79865e-18)
(-26.7964 -34.8652 5.60615e-15)
(-28.2971 -32.8694 0)
(-29.1581 -30.9327 7.45918e-15)
(-29.6869 -29.2064 -4.64811e-15)
(-30.0717 -27.7107 4.37795e-15)
(-30.4461 -26.3854 2.41704e-18)
(-30.8348 -25.19 -4.48373e-19)
(-3.49919 -39.1209 -1.32804e-15)
(-8.32272 -40.7492 -7.91267e-16)
(-14.3376 -40.8489 0)
(-19.4444 -39.7071 5.83492e-15)
(-23.0893 -37.6174 -8.25862e-15)
(-25.2451 -35.2627 -1.29446e-18)
(-26.571 -32.9729 -9.61988e-15)
(-27.4109 -30.8534 3.94159e-18)
(-27.9965 -28.9622 -4.2637e-15)
(-28.4579 -27.2973 -4.05592e-15)
(-28.8825 -25.8211 3.88516e-15)
(-29.3 -24.5003 -3.73907e-15)
(-5.24149 -41.4831 1.23789e-15)
(-9.67516 -43.2723 -7.289e-16)
(-14.661 -42.5801 0)
(-18.6859 -41.0077 2.60724e-15)
(-21.6174 -38.4664 2.45038e-15)
(-23.5251 -35.802 2.30717e-15)
(-24.7987 -33.2485 -3.72634e-18)
(-25.6863 -30.9148 -9.10369e-19)
(-26.349 -28.8286 -3.95927e-15)
(-26.8821 -26.9813 -4.87478e-18)
(-27.3509 -25.3432 2.05277e-18)
(-27.7885 -23.8842 0)
(-7.57337 -43.0471 3.8611e-16)
(-10.7196 -45.643 0)
(-14.3524 -44.0783 0)
(-17.4279 -42.1726 -2.31739e-15)
(-19.8558 -39.3157 2.19169e-15)
(-21.6509 -36.3866 -4.17915e-15)
(-22.9595 -33.5836 0)
(-23.9332 -31.0226 3.84434e-15)
(-24.6809 -28.7279 -1.99328e-18)
(-25.2772 -26.6903 3.59669e-15)
(-25.7786 -24.8835 -3.5022e-15)
(-26.2219 -23.2791 6.83527e-15)
(-8.16955 -46.1917 -2.40557e-19)
(-10.6902 -47.7817 -5.89523e-16)
(-13.1791 -45.1436 -2.20499e-15)
(-15.6595 -42.7054 -4.18721e-15)
(-17.7752 -39.5866 0)
(-19.52 -36.4707 3.85114e-15)
(-20.8976 -33.5119 -7.46264e-15)
(-21.9744 -30.8015 3.62351e-15)
(-22.8147 -28.3625 3.53754e-15)
(-23.4768 -26.1874 0)
(-24.0116 -24.2542 -3.38466e-15)
(-24.4597 -22.537 -6.62521e-15)
(-10.9417 -46.8174 -6.40885e-16)
(-9.88478 -47.452 5.44835e-16)
(-11.1147 -44.0208 2.02356e-15)
(-13.1588 -41.1687 1.94354e-15)
(-15.1177 -38.0923 -3.95418e-19)
(-16.8938 -35.0917 -5.45173e-15)
(-18.3867 -32.2619 7.07269e-15)
(-19.5961 -29.6454 1.38344e-14)
(-20.5525 -27.2606 -1.01661e-14)
(-21.3009 -25.108 -6.65919e-15)
(-21.8883 -23.1748 6.54146e-15)
(-22.3584 -21.4442 0)
(-4.77843 -43.286 1.14417e-15)
(-6.67463 -41.9766 5.19002e-16)
(-7.80561 -38.3797 9.48584e-16)
(-9.80758 -35.9403 3.67232e-15)
(-11.8723 -33.6644 0)
(-13.7862 -31.4085 3.43868e-15)
(-15.4243 -29.1952 -6.72701e-15)
(-16.7718 -27.0555 -3.29764e-15)
(-17.847 -25.0274 -3.24716e-15)
(-18.6889 -23.1373 6.39807e-15)
(-19.341 -21.396 3.1595e-15)
(-19.849 -19.8048 9.3561e-15)
(-41.3285 -25.0063 -2.66325e-15)
(-43.747 -24.6367 2.69688e-15)
(-45.0499 -23.1413 -8.13025e-15)
(-45.9016 -21.7268 2.44974e-14)
(-45.7233 -19.7891 -1.07856e-14)
(-45.0868 -17.8702 0)
(-43.394 -15.766 -5.33371e-15)
(-41.0426 -13.7523 4.01022e-15)
(-37.6739 -11.7956 0)
(-33.4069 -9.69788 9.14364e-19)
(-27.7871 -6.35397 0)
(-25.3103 0.101085 3.70511e-16)
(-35.7843 -30.0918 -1.39434e-14)
(-37.0392 -29.5517 6.81849e-15)
(-38.1785 -28.5517 6.7565e-15)
(-39.2587 -27.1801 -3.3834e-15)
(-40.0578 -25.4984 0)
(-40.3929 -23.7691 0)
(-40.154 -22.0918 3.56429e-15)
(-39.3322 -20.6166 -3.7464e-15)
(-37.9471 -19.4792 0)
(-35.2635 -18.5664 1.03389e-15)
(-31.8655 -17.4508 -2.47819e-19)
(-31.872 -14.2484 -1.35463e-15)
(-36.2253 -26.8037 2.72224e-15)
(-36.9216 -25.9921 -5.2964e-15)
(-37.5863 -25.064 0)
(-38.1324 -24.0781 -5.2479e-15)
(-38.4477 -23.0918 -5.3085e-15)
(-38.4655 -22.1844 1.0894e-14)
(-38.1465 -21.4422 -8.52957e-15)
(-37.4876 -20.9653 0)
(-36.5234 -20.8888 0)
(-34.849 -21.102 0)
(-32.2694 -21.1647 -8.85604e-16)
(-33.5781 -21.0267 0)
(-34.4687 -25.9925 -2.34452e-15)
(-34.9523 -25.1445 -3.62174e-18)
(-35.4345 -24.2777 0)
(-35.8548 -23.4248 -3.39981e-18)
(-36.1496 -22.6435 0)
(-36.2768 -22.0099 0)
(-36.2102 -21.6136 2.33371e-15)
(-35.9493 -21.5021 -2.49891e-15)
(-35.5627 -21.7948 2.65589e-15)
(-34.7617 -22.6375 0)
(-32.7207 -23.8891 -7.7559e-16)
(-35.7467 -25.8093 1.0324e-15)
(-32.8205 -24.9855 8.3665e-15)
(-33.274 -24.0535 -2.03309e-15)
(-33.7189 -23.1813 3.98658e-15)
(-34.1241 -22.3944 1.97294e-15)
(-34.4614 -21.7364 -5.89496e-15)
(-34.7145 -21.2746 0)
(-34.8645 -21.0922 -1.96899e-15)
(-34.9497 -21.2226 0)
(-34.9545 -21.8232 0)
(-34.8496 -23.0055 1.17493e-15)
(-33.5225 -24.9072 3.94224e-19)
(-37.5253 -28.0044 1.27481e-18)
(-31.2484 -24.1073 -3.85111e-15)
(-31.6848 -23.1207 -2.38259e-18)
(-32.1241 -22.2341 0)
(-32.5524 -21.4687 0)
(-32.9605 -20.861 -5.43094e-15)
(-33.3504 -20.4623 3.63384e-15)
(-33.7395 -20.3331 3.69382e-15)
(-34.1485 -20.5416 1.91325e-15)
(-34.5959 -21.2062 -4.09349e-15)
(-35.1283 -22.5034 -1.15168e-15)
(-34.6769 -24.8797 0)
(-39.2777 -29.0487 4.41396e-16)
(-29.7251 -23.3154 -7.25536e-15)
(-30.1622 -22.2534 3.53484e-15)
(-30.609 -21.3166 3.47354e-15)
(-31.0674 -20.5203 1.87568e-18)
(-31.5458 -19.893 -3.89201e-18)
(-32.0627 -19.4752 -3.39238e-15)
(-32.6496 -19.3172 -5.11786e-15)
(-33.3459 -19.4806 -1.74433e-15)
(-34.1873 -20.0732 1.83444e-15)
(-35.2761 -21.2878 0)
(-35.6593 -23.6141 1.85591e-15)
(-40.5878 -28.5386 -1.23482e-15)
(-28.2149 -22.5831 6.92191e-15)
(-28.6435 -21.4265 -3.39306e-15)
(-29.0854 -20.4121 -3.3342e-15)
(-29.5563 -19.5487 -6.57429e-15)
(-30.0796 -18.855 6.50521e-15)
(-30.6897 -18.3596 -1.87353e-18)
(-31.4355 -18.0994 9.65846e-15)
(-32.3814 -18.1253 1.62201e-15)
(-33.5902 -18.5281 1.68131e-15)
(-35.2347 -19.5111 0)
(-36.5081 -21.6363 -1.11626e-15)
(-41.5948 -26.8616 3.8401e-16)
(-26.6342 -21.8542 0)
(-27.0377 -20.5922 3.28283e-15)
(-27.4547 -19.4852 3.23285e-15)
(-27.9123 -18.5335 -3.1923e-15)
(-28.4463 -17.7447 -1.4325e-18)
(-29.1047 -17.1331 -3.12231e-15)
(-29.9542 -16.7176 -3.08933e-15)
(-31.0849 -16.5296 0)
(-32.594 -16.6266 -1.56408e-15)
(-34.7255 -17.1888 -8.41606e-16)
(-36.908 -18.8136 2.53882e-15)
(-42.0388 -23.6479 -3.55506e-16)
(-24.8543 -21.0137 0)
(-25.2256 -19.6645 0)
(-25.6052 -18.4759 0)
(-26.029 -17.44 -9.36249e-15)
(-26.5428 -16.5528 6.16588e-15)
(-27.2042 -15.8139 6.08983e-15)
(-28.0948 -15.2182 0)
(-29.3254 -14.77 -2.96857e-15)
(-31.0334 -14.4781 0)
(-33.5503 -14.472 -1.558e-15)
(-36.4481 -15.211 -4.62881e-16)
(-41.7735 -18.8698 -6.66844e-16)
(-22.7491 -19.9001 0)
(-23.0963 -18.5244 0)
(-23.4389 -17.3015 6.17977e-15)
(-23.8191 -16.218 9.15797e-15)
(-24.2904 -15.2598 3.0872e-18)
(-24.9152 -14.4118 2.98621e-15)
(-25.7861 -13.6463 -1.4726e-15)
(-27.0148 -12.9334 4.34355e-15)
(-28.7781 -12.209 2.86178e-15)
(-31.4861 -11.5444 1.46258e-15)
(-34.7136 -10.9379 -8.50535e-16)
(-40.3324 -12.0493 -1.2471e-15)
(-20.252 -18.3627 0)
(-20.5886 -17.0588 0)
(-20.9028 -15.8806 -6.02861e-15)
(-21.2402 -14.8141 2.98626e-15)
(-21.659 -13.8415 -2.95298e-15)
(-22.2179 -12.9366 -2.92385e-15)
(-23.0181 -12.0481 2.89246e-15)
(-24.1501 -11.1174 0)
(-25.8149 -9.99494 -2.79284e-15)
(-28.3173 -8.64285 -1.39648e-15)
(-32.0502 -6.35839 1.14729e-15)
(-37.2681 1.48061 2.08449e-19)
(-21.7775 0.641759 -1.64609e-19)
(-18.8651 1.15751 0)
(-17.4051 2.78054 0)
(-16.2894 4.25887 -6.09016e-15)
(-15.7273 5.52403 9.16154e-15)
(-15.4241 6.62913 0)
(-16.696 7.4699 0)
(-17.7381 12.2288 2.79531e-15)
(-14.6464 24.8882 2.8553e-15)
(-19.652 31.9781 8.51446e-15)
(-22.5041 34.0228 1.41471e-14)
(-24.2142 37.704 -2.65179e-15)
(-25.5911 -5.3854 -2.47397e-19)
(-22.1894 -3.03733 0)
(-22.5435 0.693653 0)
(-22.0347 3.7488 -2.61069e-15)
(-23.4966 6.68101 5.29456e-15)
(-24.5845 11.9779 -1.58934e-14)
(-25.9954 21.0494 1.00599e-14)
(-28.3449 28.315 2.29764e-15)
(-28.0655 31.6356 -4.29101e-15)
(-28.9273 32.7115 7.15541e-18)
(-29.2333 32.9313 0)
(-29.3122 34.3386 -7.41328e-15)
(-28.9729 -5.15259 3.06594e-16)
(-25.9351 -1.68554 0)
(-26.9475 3.72825 0)
(-26.9963 9.15455 -2.16937e-18)
(-28.3776 16.1204 2.67354e-18)
(-29.9426 23.9194 -4.61268e-15)
(-30.3521 29.3176 0)
(-30.2196 32.3794 -1.09585e-14)
(-28.929 33.7804 1.03184e-14)
(-28.1977 34.2133 -3.08379e-15)
(-27.5334 34.569 -5.90608e-15)
(-26.8328 35.2403 8.51495e-15)
(-32.6344 -5.59465 1.1271e-15)
(-31.0096 -0.394989 1.04909e-15)
(-32.6829 6.68624 0)
(-32.89 13.9966 2.08042e-15)
(-33.4638 21.4096 -2.06772e-15)
(-33.0808 27.073 3.98442e-15)
(-32.041 30.2157 0)
(-30.7084 31.9176 -3.07718e-15)
(-29.3015 32.8131 -8.74375e-15)
(-28.227 33.1551 5.46833e-15)
(-27.2736 33.4673 5.18019e-15)
(-26.3451 33.8609 -9.91714e-15)
(-34.7844 -2.03879 -5.15864e-16)
(-35.0508 2.79197 -9.53027e-16)
(-36.5451 10.0553 1.87812e-15)
(-36.4771 17.2712 0)
(-35.9101 23.5611 -7.30768e-15)
(-34.439 27.3853 6.66962e-15)
(-32.6546 29.5184 3.13405e-15)
(-30.9259 30.6312 2.87091e-15)
(-29.2998 31.1793 0)
(-27.9177 31.5085 0)
(-26.7052 31.836 0)
(-25.5908 32.2084 -6.55226e-18)
(-37.3055 -0.270683 6.3064e-19)
(-38.0509 5.2174 0)
(-39.1309 12.1578 -1.696e-15)
(-38.5319 18.5694 3.35193e-15)
(-37.0719 23.5628 3.20266e-15)
(-35.0017 26.4499 -5.82906e-15)
(-32.9302 28.027 2.77352e-15)
(-30.9222 28.9593 -1.03418e-14)
(-29.1111 29.5287 -1.40173e-18)
(-27.539 29.9299 -3.619e-18)
(-26.1569 30.3037 2.49956e-18)
(-24.9139 30.6957 1.24862e-14)
(-39.2636 2.85603 4.44561e-16)
(-40.8548 7.52457 1.6041e-15)
(-41.1357 13.5598 -3.0863e-15)
(-40.0769 18.764 -2.98651e-15)
(-37.9836 22.6151 -5.65975e-15)
(-35.556 24.908 -2.65413e-15)
(-33.187 26.3155 -4.96915e-15)
(-30.9848 27.2245 9.35267e-15)
(-29.0066 27.8549 0)
(-27.2627 28.3459 8.43022e-15)
(-25.72 28.7904 -1.21189e-14)
(-24.3414 29.2294 3.89823e-15)
(-41.6465 4.67081 -8.26738e-16)
(-43.4778 9.02269 -2.20571e-15)
(-42.9694 14.0227 4.17139e-15)
(-41.4904 18.1008 0)
(-38.9531 21.1747 -2.50914e-15)
(-36.234 23.199 4.73482e-15)
(-33.6082 24.5597 -2.36761e-18)
(-31.1916 25.5208 9.67923e-19)
(-29.0187 26.2406 -4.09556e-15)
(-27.0893 26.819 -7.87606e-15)
(-25.3767 27.3269 3.80349e-15)
(-23.8495 27.8041 -3.69528e-15)
(-43.2009 7.18527 -7.73341e-16)
(-45.8976 10.233 0)
(-44.5058 13.8498 0)
(-42.7182 16.9482 0)
(-39.8966 19.4672 2.23332e-15)
(-36.943 21.3576 0)
(-34.0833 22.7513 -3.13852e-18)
(-31.4476 23.8035 7.92399e-15)
(-29.0692 24.6206 2.25629e-18)
(-26.9472 25.2785 3.72376e-15)
(-25.0594 25.8372 -3.6311e-15)
(-23.3766 26.3377 1.0651e-14)
(-46.3746 7.93371 -1.4406e-15)
(-48.0252 10.3572 2.96553e-15)
(-45.5788 12.8017 -1.11101e-15)
(-43.2777 15.2781 0)
(-40.2244 17.446 0)
(-37.1145 19.2639 0)
(-34.1233 20.7239 0)
(-31.3563 21.8863 3.73592e-15)
(-28.8445 22.8099 -1.46018e-14)
(-26.5885 23.5508 -7.14814e-15)
(-24.5712 24.1607 7.00859e-15)
(-22.7681 24.6824 3.44586e-15)
(-46.8869 10.8538 -6.42743e-16)
(-47.7377 9.68268 -1.65373e-15)
(-44.46 10.8841 -1.02857e-15)
(-41.7395 12.887 0)
(-38.7413 14.8486 0)
(-35.7763 16.6782 3.72835e-15)
(-32.9458 18.2529 -7.27863e-15)
(-30.3 19.556 1.42656e-14)
(-27.8624 20.6087 1.0505e-14)
(-25.6387 21.451 6.88418e-15)
(-23.6225 22.1289 -6.77663e-15)
(-21.8008 22.6865 4.93334e-18)
(-43.5122 4.80911 -1.15557e-18)
(-42.3187 6.63451 0)
(-38.8584 7.63082 1.92288e-15)
(-36.4918 9.5765 -5.62922e-15)
(-34.3038 11.646 5.45118e-15)
(-32.1131 13.6193 2.98176e-18)
(-29.933 15.3465 3.46623e-15)
(-27.7931 16.7956 -3.40705e-15)
(-25.7333 17.9751 -1.67956e-14)
(-23.7835 18.9192 0)