/*--------------------------------*- C++ -*----------------------------------*\
| =========                 |                                                 |
| \\      /  F ield         | OpenFOAM: The Open Source CFD Toolbox           |
|  \\    /   O peration     | Version:  2206                                  |
|   \\  /    A nd           | Website:  www.openfoam.com                      |
|    \\/     M anipulation  |                                                 |
\*---------------------------------------------------------------------------*/
FoamFile
{
    version     2.0;
    format      ascii;
    arch        "LSB;label=32;scalar=64";
    class       volScalarField;
    location    "500";
    object      p;
}
// * * * * * * * * * * * * * * * * * * * * * * * * * * * * * * * * * * * * * //

dimensions      [0 2 -2 0 0 0 0];

internalField   nonuniform List<scalar> 
50904
(
56.7365
67.2557
-142.728
-130.369
53.9451
64.4643
-140.963
-128.571
50.5616
61.0877
-138.883
-126.449
46.4342
56.9744
-136.424
-123.938
41.2326
51.7931
-133.404
-120.871
34.732
45.3333
-129.767
-117.175
26.7138
37.3577
-125.452
-112.817
16.9845
27.6685
-120.506
-107.851
5.44941
16.1718
-115.059
-102.444
-7.04785
3.69717
-109.662
-97.2007
-20.221
-9.59562
-104.598
-92.3402
-32.8853
-22.5608
-100.305
-88.3365
-42.8211
-32.9939
-97.3481
-85.7569
-48.5095
-39.4059
-95.4221
-84.1624
-47.9746
-39.7437
-94.4205
-83.4236
-41.2767
-34.1028
-94.3184
-83.6979
-33.5262
-27.3689
-94.6196
-84.575
-26.343
-21.0229
-95.5205
-86.1894
-20.581
-15.6796
-97.566
-88.8955
-17.6864
-12.5814
-101.175
-92.9176
-16.4535
-10.9098
-104.671
-96.8019
-15.1504
-9.25326
-107.093
-99.6182
-12.199
-5.89426
-108.013
-100.629
-10.1442
-3.44756
-107.908
-100.131
-9.44665
-2.44829
-107.253
-98.8424
-9.65535
-2.51629
-106.307
-97.3172
-10.3707
-3.2226
-105.157
-95.8085
-11.2873
-4.20599
-104.003
-94.4968
-12.2017
-5.24234
-102.916
-93.3985
-13.0429
-6.2262
-101.915
-92.4713
-13.7909
-7.11463
-101.037
-91.7114
-14.4342
-7.88731
-100.287
-91.0899
-14.9735
-8.54072
-99.6509
-90.5773
-15.42
-9.08456
-99.1284
-90.1655
-15.7933
-9.54121
-98.6993
-89.834
-16.0712
-9.88472
-98.3501
-89.5585
-38.9647
-26.1881
-31.2879
-25.1958
3.74107
7.31178
19.7238
21.1457
31.8972
32.1018
40.3718
39.7604
47.3217
45.4757
-39.5061
-26.8001
-31.8695
-25.6396
1.88491
5.73794
17.3665
19.1806
28.8648
29.5008
36.9234
36.7721
43.5189
42.2865
-40.0985
-27.4569
-32.6513
-26.2208
-0.411085
3.82107
14.3978
16.7245
25.2355
26.4273
33.01
33.4201
39.4336
38.8516
-41.0293
-28.4588
-33.814
-27.1181
-3.47865
1.21656
10.636
13.5815
20.7946
22.6603
28.3822
29.4619
34.811
34.9286
-42.5186
-30.0262
-35.5588
-28.5014
-7.70553
-2.43
5.68026
9.38822
15.1996
17.8854
22.6696
24.5563
29.3049
30.2261
-44.7619
-32.3505
-38.0992
-30.553
-13.3844
-7.37435
-0.850014
3.7968
8.09994
11.78
15.5765
18.4215
22.6209
24.4658
-47.9842
-35.6481
-41.7411
-33.5439
-20.809
-13.8806
-9.33762
-3.55638
-0.910973
3.95407
6.75029
10.7156
14.4043
17.3098
-52.4068
-40.1297
-46.869
-37.8267
-30.2537
-22.1952
-20.2166
-13.0756
-12.3017
-6.03201
-4.29058
0.978384
4.27548
8.38515
-58.2233
-45.9564
-53.9664
-43.8486
-41.8921
-32.498
-33.5672
-24.9126
-26.084
-18.3038
-17.5657
-10.936
-7.77711
-2.44433
-65.2216
-52.8421
-63.5214
-52.0035
-56.3067
-45.2072
-50.2627
-39.7284
-43.4402
-33.8071
-34.3195
-26.0408
-23.1618
-16.3385
-73.1155
-60.5142
-75.2335
-62.059
-72.602
-59.5893
-68.8571
-56.2918
-62.6647
-51.0618
-52.8408
-42.8281
-40.1687
-31.7813
-81.4015
-68.5048
-88.8443
-73.8353
-90.655
-75.6445
-89.3682
-74.7817
-83.9672
-70.4546
-73.5509
-61.8832
-59.5121
-49.6035
-89.1652
-75.8931
-103.102
-86.2108
-108.709
-91.7975
-109.412
-93.0871
-104.646
-89.6191
-93.6582
-80.763
-78.6225
-67.5589
-95.3251
-81.7546
-114.958
-96.9039
-123.423
-105.574
-125.804
-108.82
-121.882
-106.38
-110.926
-97.7017
-94.4828
-83.2276
-99.7489
-85.9609
-123.289
-104.979
-133.672
-115.907
-137.032
-120.473
-133.719
-118.733
-123.117
-110.281
-106.818
-95.8335
-101.896
-88.351
-126.93
-109.664
-138.148
-122.029
-141.972
-127.472
-139.222
-126.328
-129.308
-118.254
-113.562
-104.213
-103.41
-90.3951
-128.694
-113.021
-140.147
-126.204
-144.062
-132.099
-141.589
-131.248
-132.097
-123.285
-116.554
-109.335
-105.251
-92.9046
-130.212
-116.3
-141.574
-129.881
-145.387
-135.944
-143.026
-135.193
-133.759
-127.162
-117.958
-112.898
-108.042
-96.4232
-133.134
-120.844
-144.423
-134.694
-148.073
-140.726
-145.673
-139.925
-136.463
-131.797
-120.163
-116.878
-111.11
-100.373
-136.646
-125.974
-148.137
-140.165
-151.827
-146.198
-149.325
-145.214
-139.895
-136.75
-123.308
-121.499
-113.536
-103.815
-139.633
-130.63
-151.713
-145.408
-155.736
-151.663
-153.303
-150.645
-143.719
-141.924
-126.835
-126.335
-113.982
-105.302
-140.146
-132.897
-152.918
-148.387
-157.655
-155.227
-155.935
-154.727
-146.82
-146.244
-127.674
-128.736
-110.991
-102.874
-135.838
-130.061
-148.088
-145.244
-153.04
-152.301
-151.755
-152.2
-143.075
-144.051
-124.157
-126.34
-107.036
-98.7537
-128.573
-123.431
-137.955
-136.09
-141.853
-142.231
-140.486
-142.109
-132.506
-134.621
-115.397
-118.228
-103.967
-95.0823
-121.627
-116.353
-126.265
-124.484
-127.91
-128.474
-125.901
-127.767
-118.662
-121.003
-104.051
-106.748
-102.347
-92.8116
-116.978
-111.188
-116.159
-113.839
-114.885
-114.81
-111.747
-112.896
-105.061
-106.629
-92.8947
-94.5806
-101.88
-91.8654
-114.838
-108.527
-109.122
-106.113
-104.88
-103.927
-100.423
-100.581
-94.0425
-94.5761
-83.9965
-84.5504
-102.116
-91.8318
-114.588
-107.942
-105.185
-101.643
-98.1673
-96.4139
-92.2595
-91.4271
-85.9404
-85.3921
-77.4613
-76.859
-102.704
-92.3248
-115.475
-108.667
-103.819
-99.9677
-94.4774
-92.1673
-87.17
-85.6155
-80.7623
-79.4302
-73.3875
-71.9844
-103.423
-93.0724
-116.869
-110.071
-104.193
-100.269
-93.0646
-90.4658
-84.4348
-82.4119
-77.7488
-75.8569
-71.1156
-69.1222
-104.142
-93.8875
-118.401
-111.712
-105.538
-101.7
-93.207
-90.5415
-83.405
-81.1514
-76.3614
-74.1432
-70.1776
-67.8288
-104.789
-94.661
-119.877
-113.341
-107.311
-103.65
-94.2974
-91.7314
-83.5255
-81.247
-76.0384
-73.7081
-70.0731
-67.5893
-105.342
-95.3458
-121.216
-114.855
-109.177
-105.746
-95.8737
-93.5272
-84.3772
-82.2373
-76.4011
-74.1283
-70.4375
-67.9834
-105.811
-95.9382
-122.393
-116.205
-110.974
-107.789
-97.6507
-95.5843
-85.6962
-83.7983
-77.2548
-75.1502
-71.0963
-68.7658
-106.206
-96.4456
-123.427
-117.397
-112.645
-109.699
-99.4788
-97.7119
-87.3315
-85.7383
-78.5373
-76.6862
-72.0548
-69.9254
-106.482
-96.8063
-124.21
-118.298
-113.955
-111.201
-100.99
-99.4799
-88.8029
-87.4959
-79.8087
-78.2223
-73.0823
-71.207
53.6763
50.5396
58.8585
54.8948
62.2051
57.8226
65.544
60.7149
70.5373
64.9145
80.0584
72.8724
49.632
47.2154
54.8225
51.5548
58.582
54.7974
62.4466
58.1158
67.9192
62.7114
77.8621
71.0624
45.4635
43.7848
50.8494
48.315
55.0239
51.9321
59.2352
55.5419
64.8798
60.2473
75.0248
68.766
40.979
40.0229
46.7548
44.9071
51.5388
49.0916
56.169
53.1095
61.7862
57.8016
71.701
66.0922
35.8142
35.651
42.2598
41.133
47.9169
46.1296
53.143
50.7335
58.6868
55.4021
67.8638
63.0242
29.732
30.4484
37.174
36.8141
44.0726
42.9602
50.1876
48.4293
55.6739
53.1137
63.5865
59.6271
22.4462
24.1481
31.2772
31.7488
39.9109
39.4969
47.2885
46.1827
52.8285
50.9934
59.0672
56.0612
13.6216
16.4085
24.3548
25.6974
35.2947
35.5669
44.4087
43.9083
50.1922
49.0233
54.4828
52.4248
3.19225
7.05476
16.3361
18.495
30.1547
31.0234
41.4791
41.4753
47.6871
47.0863
49.8908
48.7167
-10.2323
-5.07083
5.85781
8.97585
23.1552
24.6935
37.2205
37.7299
44.2837
44.2062
44.7624
44.3616
-25.1574
-18.6121
-5.89133
-1.72742
15.1397
17.4286
32.1665
33.2623
40.2502
40.753
39.2376
39.592
-42.5379
-34.6031
-20.1676
-14.9182
4.47411
7.60031
24.4437
26.2357
33.8342
34.9905
32.1987
33.2281
-60.0334
-50.9778
-35.0458
-28.8507
-7.46885
-3.50525
14.9325
17.5334
25.5682
27.4909
24.05
25.7113
-75.1018
-65.7327
-49.8199
-43.0111
-20.4112
-15.6919
3.81563
7.27644
15.6767
18.4379
14.9215
17.1229
-87.3412
-78.2613
-61.5384
-54.8413
-31.3953
-26.2829
-6.57448
-2.22473
5.935
9.74134
6.20238
9.04119
-93.8877
-86.5985
-67.6361
-62.4979
-37.7
-33.377
-13.2491
-8.9414
-0.726334
3.38043
0.284379
3.16331
-96.677
-91.6668
-70.3188
-67.1433
-40.8673
-37.7233
-16.985
-13.1273
-4.61855
-0.61544
-3.11371
-0.521138
-97.6269
-94.947
-71.2414
-70.0583
-42.2837
-40.3901
-18.9533
-15.6676
-6.81055
-3.04176
-5.03017
-2.80191
-99.2408
-98.4291
-72.8528
-73.4019
-44.1716
-43.2692
-21.1516
-18.0794
-9.15236
-5.1595
-7.28942
-4.97047
-101.986
-102.936
-75.2704
-77.5733
-46.5761
-46.6011
-23.6506
-20.5536
-11.6968
-7.08179
-9.90756
-7.09439
-104.937
-107.473
-77.7132
-81.5935
-49.063
-49.909
-26.3558
-23.1998
-14.6143
-9.3707
-13.1132
-9.68906
-103.191
-107.555
-76.2842
-81.4286
-48.9476
-50.3876
-27.6822
-24.5519
-17.0877
-11.4867
-16.0988
-12.1971
-99.1309
-103.956
-72.2631
-77.3598
-46.6568
-47.8813
-27.2049
-23.926
-17.8074
-12.1682
-17.3906
-13.3388
-91.9153
-96.5328
-66.4168
-70.7404
-43.5045
-44.039
-26.4326
-22.8324
-18.232
-12.6151
-17.7467
-13.7083
-83.4187
-87.111
-60.7513
-63.6932
-41.3113
-40.8145
-26.9677
-22.9522
-19.7653
-14.2408
-18.2749
-14.3445
-75.5573
-77.6326
-56.4718
-57.5581
-40.6763
-38.8857
-28.9626
-24.4203
-22.4249
-16.9407
-19.2384
-15.3177
-69.6743
-70.2659
-54.0981
-53.6542
-41.6089
-38.9281
-32.1471
-27.4837
-25.9464
-20.8464
-20.7342
-17.0319
-65.7454
-64.9608
-53.1591
-51.4065
-43.4066
-40.0198
-35.7349
-31.0503
-29.6251
-24.9269
-22.3922
-18.8905
-63.7304
-62.0189
-53.4771
-50.9138
-45.8468
-42.1669
-39.4723
-35.0528
-33.2436
-29.1228
-24.1019
-20.9087
-62.8846
-60.5126
-54.3736
-51.281
-48.2906
-44.4962
-42.814
-38.7132
-36.3683
-32.8048
-25.5934
-22.697
-62.9002
-60.1314
-55.6201
-52.2473
-50.6329
-46.8814
-45.7255
-42.0014
-38.9916
-35.9849
-26.8277
-24.2081
-63.3575
-60.4256
-56.8935
-53.4509
-52.6462
-49.0664
-48.0794
-44.771
-41.0638
-38.6061
-27.8028
-25.4369
-63.9709
-61.0406
-57.9841
-54.6097
-54.2116
-50.8777
-49.8383
-46.9518
-42.5967
-40.6717
-28.5365
-26.4096
-64.5848
-61.7281
-58.7618
-55.4933
-55.2933
-52.1922
-51.0461
-48.5195
-43.6885
-42.2393
-29.1007
-27.1829
-65.071
-62.3021
-59.0541
-55.8424
-55.8187
-52.8586
-51.7847
-49.5186
-44.4593
-43.4147
-29.5623
-27.8228
-65.3351
-62.6708
-58.8471
-55.6362
-55.9159
-53.0029
-52.1424
-50.0337
-44.9352
-44.2016
-29.8809
-28.2759
94.7121
84.5682
109.73
96.1593
116.285
101.256
119.988
104.171
122.894
106.436
126.38
108.999
92.1089
82.5114
106.143
93.3202
112.183
97.9925
115.848
100.894
118.983
103.38
122.672
106.152
88.6863
79.818
101.671
89.8049
107.474
94.3154
111.432
97.5045
114.997
100.392
118.912
103.383
84.5138
76.5053
96.3891
85.6268
102.126
90.1255
106.601
93.8099
110.9
97.3732
115.351
100.851
79.4058
72.4207
90.0681
80.6101
95.849
85.2048
101.125
89.6431
106.466
94.1592
111.762
98.3867
73.3339
67.5473
82.6217
74.6884
88.5775
79.4982
94.9735
84.9721
101.746
90.7793
108.215
96.0395
66.383
61.9472
74.0621
67.8705
80.2762
72.9926
88.1367
79.8179
96.7732
87.2994
104.815
93.9279
58.7336
55.722
64.5808
60.2408
71.2203
65.8265
80.9937
74.3991
92.0204
84.0148
102.065
92.3776
50.5837
48.9834
54.4158
51.9456
61.6119
58.1331
73.7027
68.8301
87.6089
81.0238
100.011
91.4298
41.7751
41.4301
43.3936
42.6021
51.2966
49.5125
66.1382
62.7183
83.454
77.9575
98.6518
90.7812
32.9735
33.7376
32.7498
33.4436
41.5795
41.2925
59.4034
57.2382
80.3534
75.746
98.3726
91.0296
23.7173
25.2203
22.2212
23.8409
32.1059
32.7315
52.8524
51.4069
77.334
73.1539
98.0225
90.8255
14.8708
16.6858
13.2061
15.0021
24.3216
25.0681
47.4976
46.1073
74.948
70.7094
97.7078
90.3403
6.21089
7.92063
5.29139
6.61495
17.5573
17.8034
42.4967
40.7399
72.0051
67.5817
96.3817
89.0759
-1.12365
0.277634
-0.799479
-0.252943
12.3861
12.0275
38.3231
36.5299
68.9617
65.0967
94.1894
87.7686
-5.51687
-4.94624
-4.02228
-4.6947
9.66913
8.45257
35.8987
34.1028
66.9857
63.975
93.1937
87.9559
-7.7182
-8.04928
-5.39843
-7.23278
8.55496
6.5761
34.7697
33.0787
65.9495
63.9288
92.8803
89.0685
-8.72918
-9.85457
-5.83365
-8.5503
8.19453
5.72121
34.2872
32.8784
65.347
64.4046
92.6411
90.3795
-10.7273
-12.0669
-7.49014
-10.3251
6.84749
4.46742
33.6532
32.926
65.2372
65.5113
92.5729
91.6724
-14.1209
-15.4698
-10.9847
-13.7295
4.32301
2.37664
33.0264
33.498
66.2265
68.3724
94.1276
95.3765
-18.4757
-19.6635
-15.9406
-18.4355
0.261032
-0.949221
30.8826
33.0337
65.572
70.1137
93.7858
97.5639
-21.0052
-22.2865
-19.2434
-21.9028
-4.76769
-5.135
23.7767
28.3033
56.2992
64.5263
82.5749
90.5229
-22.4889
-23.4936
-21.8211
-24.2431
-9.25023
-9.08831
16.2464
21.7631
46.1512
55.8557
73.1157
82.4591
-22.0654
-22.9098
-21.6665
-24.0674
-10.9819
-10.8803
11.0395
16.4239
37.6706
47.3921
64.8518
74.5203
-20.084
-20.7816
-18.6472
-21.1178
-9.62005
-9.95586
8.54532
12.9851
31.1213
39.7239
56.4253
65.4756
-17.382
-17.6035
-13.8334
-15.8419
-6.03354
-6.40541
8.49303
12.0912
26.7832
34.0441
48.5308
56.6021
-14.7902
-14.5621
-8.7421
-10.2757
-1.76003
-2.20226
9.59854
12.2145
23.943
29.5454
41.68
48.1982
-12.4628
-11.6966
-3.75055
-4.50467
2.73039
2.6107
11.6022
13.7099
22.5833
27.0083
36.914
42.2642
-10.6474
-9.47352
0.480129
0.311011
6.72557
6.7868
13.7057
15.2683
22.0983
25.3666
33.6796
37.7518
-9.26066
-7.70201
4.03955
4.56304
10.262
10.7485
15.9135
17.3304
22.4005
25.0139
31.9377
35.2145
-8.27285
-6.39896
6.8484
8.00008
13.1267
14.0601
17.8622
19.2945
22.9837
25.2181
31.087
33.854
-7.61347
-5.50914
9.00918
10.6954
15.3866
16.739
19.5244
21.0541
23.6992
25.7333
30.87
33.3363
-7.20225
-4.95816
10.5916
12.6927
17.056
18.7659
20.805
22.4613
24.3578
26.3051
30.9732
33.2735
-6.97675
-4.66473
11.6866
14.095
18.1583
20.1618
21.6322
23.4431
24.7757
26.7318
31.183
33.4451
-6.8783
-4.54305
12.4026
15.0165
18.728
20.9397
21.847
23.7898
24.6738
26.6947
31.3342
33.646
-6.83602
-4.50993
12.8441
15.5649
18.9534
21.2775
21.6643
23.6649
24.1685
26.2458
31.4709
33.8504
129.449
111.363
131.753
112.991
133.114
113.645
133.629
113.503
132.467
111.819
128.493
107.414
110.456
91.6271
125.953
108.659
128.629
110.598
130.567
111.758
131.697
112.13
131.197
110.978
127.912
107.106
110.467
91.7002
122.333
105.979
125.285
108.143
127.662
109.69
129.328
110.51
129.514
109.899
127.062
106.661
110.406
91.758
119.082
103.685
122.357
106.119
125.093
107.991
127.097
109.098
127.787
108.865
126.085
106.171
110.318
91.825
116.019
101.64
119.787
104.491
122.954
106.756
125.218
108.09
126.199
108.05
125.03
105.694
110.235
91.9413
113.26
99.9269
117.745
103.379
121.48
106.163
123.986
107.722
125.036
107.696
124.014
105.336
110.196
92.1522
110.941
98.6857
116.386
102.952
120.892
106.434
123.708
108.273
124.653
108.107
123.271
105.308
110.278
92.5412
109.62
98.2777
116.34
103.62
121.834
107.998
124.989
110.154
125.604
109.668
123.266
105.956
110.632
93.2305
109.304
98.7316
117.603
105.423
124.271
110.876
127.814
113.386
127.979
112.454
124.282
107.478
111.384
94.3232
110.062
99.7918
120.265
108.107
128.343
114.849
132.372
117.813
131.989
116.379
126.665
109.983
112.718
95.8916
112.015
101.836
124.284
111.915
133.742
119.916
138.116
123.166
137.068
121.062
130.059
113.142
114.514
97.7698
113.775
103.364
128.003
115.128
138.671
124.248
143.355
127.751
141.824
125.13
133.459
115.989
116.284
99.4656
115.059
104.274
130.703
117.32
141.994
127.057
146.71
130.573
144.721
127.439
135.429
117.435
117.33
100.399
114.428
103.751
130.228
116.986
141.463
126.787
146.094
130.18
144.085
126.848
134.789
116.709
116.971
100.136
112.362
102.766
127.953
116.103
138.714
125.579
142.835
128.363
140.577
124.483
131.425
114.147
114.693
98.4194
111.63
103.435
126.435
116.391
136.175
125.072
139.459
127.002
136.784
122.491
127.621
111.797
111.761
96.5466
111.573
104.988
125.794
117.595
134.799
125.714
137.472
127.026
134.443
121.994
125.129
110.838
109.627
95.5656
112.053
107.182
126.497
120.04
135.076
127.845
137.339
128.759
134.035
123.342
124.397
111.586
108.586
95.6537
112.798
109.761
128.149
123.85
136.71
131.544
138.863
132.296
135.34
126.593
125.278
114.1
108.686
96.8704
114.169
113.393
129.78
127.711
139.157
136.17
141.973
137.57
138.862
132.204
128.931
119.472
110.815
100.058
113.704
115.535
130.018
130.601
140.541
140.165
144.171
142.38
141.492
137.429
131.852
124.68
112.907
103.52
108.345
113.066
131.186
133.585
141.217
143.165
144.027
144.934
141.211
139.916
131.828
127.18
113.472
105.646
100.608
107.223
123.835
128.947
133.721
138.525
136.316
140.011
133.528
134.859
124.825
122.433
109.213
102.671
90.4881
98.2579
110.32
117.322
119.613
126.304
122.394
127.822
120.59
123.453
114.368
113.111
103.21
97.0358
78.4965
86.309
94.2703
101.706
102.523
109.639
105.769
111.564
105.93
109.073
103.972
102.782
97.9245
91.3592
66.5886
73.9714
79.0985
86.2729
86.4271
93.2134
90.4875
95.8998
93.3417
96.0855
96.6491
94.9822
94.895
87.6675
56.4285
62.6439
66.5653
72.6489
73.334
79.0331
78.6556
83.1091
84.652
86.6498
93.0686
90.813
94.0512
86.2608
49.047
54.2678
57.3459
62.4742
63.9263
68.6764
70.7187
74.3253
79.8827
81.2353
92.2154
89.4627
94.3099
86.036
43.7219
47.7743
50.9437
55.0326
57.7161
61.5101
66.1596
69.0191
78.2549
79.1445
93.0375
89.9632
94.9512
86.3959
40.5293
43.8921
47.1284
50.5725
54.2951
57.5066
64.3325
66.7712
78.7093
79.3934
94.5674
91.3439
95.6947
87.0471
38.7746
41.6974
45.0833
48.1376
52.8133
55.714
64.3166
66.6061
80.2029
80.8933
96.2305
93.0008
96.4395
87.8018
38.0459
40.7251
44.2891
47.1513
52.6572
55.449
65.3522
67.678
82.0411
82.85
97.7569
94.5959
97.1045
88.5263
37.9839
40.5594
44.356
47.1755
53.3788
56.2129
66.9088
69.3855
83.8985
84.8869
99.1015
96.0405
97.6663
89.1572
38.355
40.9524
45.0327
47.9438
54.6322
57.6238
68.6389
71.3435
85.6229
86.8162
100.255
97.3128
98.1338
89.6981
39.1508
41.8774
46.2322
49.3472
56.205
59.4387
70.3758
73.3441
87.1806
88.5827
101.246
98.4223
98.5212
90.1539
40.2487
43.1241
47.5199
50.8575
57.6504
61.1162
71.8124
75.0091
88.406
89.9742
102
99.2656
98.7927
90.4667
102.89
86.6776
86.5833
74.6166
87.6957
78.7172
45.1927
38.4655
103.065
86.8337
86.7518
74.7073
87.9657
78.9014
44.9167
38.122
103.269
87.0313
86.9612
74.8193
88.3265
79.1476
44.5396
37.6541
103.488
87.2642
87.2071
74.9594
88.7665
79.4684
44.0673
37.0786
103.723
87.542
87.4996
75.1477
89.3016
79.8843
43.467
36.3623
103.951
87.8606
87.8392
75.3963
89.9574
80.4333
42.7094
35.4798
104.154
88.2253
88.2359
75.7344
90.7487
81.1541
41.749
34.3951
104.35
88.659
88.6947
76.1925
91.6823
82.0884
40.561
33.101
104.531
89.163
89.222
76.8001
92.7522
83.2589
39.1394
31.6155
104.728
89.73
89.8395
77.5632
93.9603
84.6543
37.5255
29.9748
104.955
90.3287
90.5356
78.465
95.1325
86.11
35.6507
28.146
105.131
90.7849
91.3284
79.4778
96.1414
87.4325
33.6151
26.2442
105.058
90.8502
92.165
80.476
96.6305
88.1696
31.7448
24.5182
104.25
90.1814
92.6927
81.1709
95.9751
87.7324
30.7567
23.7374
102.565
88.7893
92.6662
81.3658
94.104
86.0524
30.8208
24.0413
100.247
87.1286
91.3476
80.5505
91.8354
84.0354
29.4369
22.9803
98.1968
85.8949
89.5182
79.4049
89.233
81.7367
27.611
21.5919
96.7774
85.3463
87.5913
78.2336
86.6746
79.5335
25.1409
19.6786
96.1757
85.5052
85.9808
77.2105
85.5874
78.728
21.4252
16.5477
97.0293
86.9903
85.1085
76.7499
86.0991
79.4439
16.4051
11.986
98.0623
88.7792
83.7958
75.8129
87.2723
80.7684
10.9806
6.77693
98.5459
90.1398
81.2181
73.665
88.0507
81.7656
4.77004
0.490087
96.6289
88.8096
77.1076
69.4781
89.498
83.0956
-4.14599
-9.07666
94.2129
86.2759
73.7183
65.4048
90.8216
83.8782
-11.3431
-17.1959
92.4543
83.9678
71.6874
62.4565
91.1725
83.5921
-15.6717
-22.4159
91.7592
82.5792
70.6726
60.5821
90.7321
82.6292
-18.0771
-25.5138
91.3475
81.6763
70.2814
59.6788
89.3746
80.9816
-18.7868
-26.5647
90.9183
81.0525
70.2538
59.4598
87.368
78.893
-18.0352
-25.9155
90.7333
80.8207
70.3298
59.4727
85.1961
76.7806
-16.6979
-24.6266
90.5545
80.625
70.3787
59.5788
83.0874
74.7986
-15.1809
-23.0541
90.2935
80.406
70.4334
59.7633
81.1867
73.0396
-13.5903
-21.3389
89.9555
80.1515
70.4801
59.9629
79.4802
71.4718
-11.9889
-19.6007
89.6069
79.8833
70.5066
60.1438
78.0029
70.1281
-10.486
-17.9742
89.2911
79.6577
70.5322
60.3073
76.7653
69.0066
-9.14569
-16.5225
89.0255
79.4747
70.5583
60.4506
75.7174
68.0611
-7.94624
-15.2276
88.7839
79.2954
70.5551
60.5306
74.8575
67.2819
-6.96759
-14.1755
-320.38
-337.321
436.794
449.614
-739.241
-785.439
-317.881
-334.816
434.492
447.418
-740.561
-786.999
-314.819
-331.708
431.772
444.805
-741.804
-788.528
-311.01
-327.876
428.607
441.776
-743.381
-790.438
-306.139
-322.889
424.653
437.937
-745.53
-792.942
-299.856
-316.395
419.575
432.946
-748.267
-796.036
-291.659
-307.837
412.944
426.336
-751.54
-799.63
-281.102
-296.719
404.417
417.757
-755.386
-803.733
-267.698
-282.478
393.391
406.488
-759.788
-808.182
-251.554
-265.188
379.286
391.894
-764.074
-812.124
-231.513
-243.745
360.41
372.315
-766.264
-813.546
-207.847
-218.459
335.973
347.004
-763.428
-809.341
-182.229
-191.077
306.512
316.524
-750.861
-794.725
-155.888
-163.054
272.977
281.996
-723.23
-764.485
-134.257
-140.1
242.855
251.282
-687.527
-725.916
-123.989
-129.097
229.188
237.815
-664.966
-701.422
-118.183
-122.673
221.58
230.407
-642.369
-676.704
-115.046
-118.957
215.252
224.063
-620.009
-651.878
-114.978
-118.433
210.88
219.504
-599.52
-628.996
-116.797
-119.925
205.219
213.261
-580.977
-608.206
-118.999
-121.766
199.304
206.602
-564.466
-589.621
-121.8
-124.23
196.383
202.836
-553.458
-576.946
-128.604
-130.818
204.568
210.028
-560.999
-583.615
-134.158
-136.304
213.916
218.563
-572.531
-595.153
-136.707
-138.858
220.387
224.507
-581.739
-604.976
-136.512
-138.645
223.776
227.58
-588.047
-612.071
-134.201
-136.272
224.485
228.119
-591.499
-616.269
-130.699
-132.654
223.594
227.122
-593.517
-618.873
-126.69
-128.485
221.859
225.287
-594.755
-620.466
-122.581
-124.198
219.588
222.924
-595.173
-621.098
-118.659
-120.106
217.117
220.378
-594.979
-621.043
-115.081
-116.377
214.658
217.85
-594.473
-620.598
-111.92
-113.089
212.366
215.502
-593.843
-619.983
-109.202
-110.263
210.33
213.418
-593.206
-619.337
-106.83
-107.8
208.449
211.493
-592.404
-618.501
-104.912
-105.812
206.826
209.828
-591.165
-617.211
-27.1902
23.3006
-8.93128
27.7962
28.4102
45.4835
-126.013
-105.479
-135.461
-135.395
-147.693
-145.351
-31.4339
23.4058
-11.119
25.9026
25.9098
42.9372
-127.207
-103.776
-134.795
-133.988
-146.356
-143.702
-36.5896
23.4997
-13.7848
23.609
22.8661
39.8457
-128.667
-101.708
-134.002
-132.307
-144.762
-141.735
-42.9162
23.6021
-17.0332
20.7993
19.1463
36.0536
-130.406
-99.2403
-133.07
-130.317
-142.875
-139.409
-51.009
23.7242
-21.1272
17.2509
14.4659
31.2658
-132.546
-96.2493
-131.952
-127.889
-140.562
-136.557
-61.2775
23.8927
-26.2281
12.808
8.62701
25.2627
-135.163
-92.6269
-130.62
-124.973
-137.773
-133.122
-74.2944
24.0779
-32.5326
7.27552
1.43557
17.8244
-138.403
-88.2851
-129.064
-121.504
-134.448
-129.058
-90.5872
24.3194
-40.1627
0.500673
-7.26723
8.74118
-142.438
-83.1466
-127.299
-117.502
-130.601
-124.41
-110.849
24.6472
-49.205
-7.65758
-17.5558
-2.12129
-147.729
-77.054
-125.431
-113.024
-126.312
-119.304
-135.159
25.129
-59.1546
-16.8141
-28.7386
-14.0515
-154.872
-69.9785
-123.67
-108.408
-121.931
-114.251
-162.977
25.7284
-69.4499
-26.809
-40.4037
-26.8039
-164.78
-61.7944
-122.203
-103.957
-117.683
-109.593
-192.386
26.585
-78.6803
-36.7435
-51.2816
-39.2138
-178.468
-52.3922
-121.164
-100.082
-113.85
-105.759
-219.463
27.8077
-84.4491
-44.7838
-59.1445
-49.0398
-196.049
-42.3033
-120.357
-97.2687
-110.731
-103.218
-239.371
28.2515
-84.1702
-49.6546
-62.2658
-54.5016
-214.482
-33.7712
-118.475
-95.7195
-107.968
-101.577
-254.622
30.3149
-78.4498
-49.4733
-59.4348
-53.5999
-233.838
-26.481
-116.069
-95.0017
-105.657
-100.502
-270.652
38.2919
-70.0038
-43.4489
-51.3441
-46.4674
-257.453
-16.6249
-114.365
-93.9379
-104.07
-99.9655
-283.732
46.5034
-61.2543
-36.341
-42.5912
-38.3302
-280.98
-5.86023
-112.453
-92.4075
-102.686
-99.6273
-291.448
52.1671
-52.7081
-29.8333
-34.6533
-30.8718
-303.251
4.58443
-110.242
-90.7469
-101.685
-99.7239
-291.404
53.3966
-44.7312
-24.8121
-28.4099
-24.9479
-324.827
13.1971
-108.415
-89.731
-101.807
-100.845
-284.333
51.5937
-38.3567
-21.4679
-24.8029
-21.7934
-342.34
20.3343
-107.158
-89.0918
-103.249
-103.289
-269.067
47.1667
-33.8646
-19.0524
-22.9499
-20.259
-352.435
26.8346
-106.171
-87.4829
-104.682
-105.434
-250.442
46.4433
-31.7762
-15.5303
-21.0369
-18.4821
-358.3
38.8407
-106.525
-82.843
-105.005
-106.068
-237.431
53.559
-32.1159
-9.8476
-17.9562
-15.0188
-372.295
60.5766
-111.82
-75.213
-104.853
-104.946
-225.489
61.0442
-33.6979
-4.96168
-15.8531
-12.3275
-381.987
81.4943
-118.308
-67.3449
-104.543
-102.923
-213.504
65.9378
-35.412
-1.68548
-14.9888
-10.949
-383.692
97.2838
-123.395
-60.5634
-103.932
-100.633
-202.553
68.4587
-36.7102
0.170519
-14.8889
-10.5333
-379.247
107.625
-126.239
-55.4236
-102.947
-98.4754
-193.005
69.3638
-37.4604
0.965695
-15.1879
-10.7402
-370.654
113.462
-126.903
-51.9458
-101.604
-96.5845
-185.127
69.402
-37.8084
1.08908
-15.6584
-11.2723
-360.257
116.28
-126.076
-49.7662
-100.115
-95.0247
-178.763
69.0477
-37.8832
0.857343
-16.1454
-11.8947
-349.613
117.322
-124.411
-48.4617
-98.6246
-93.7524
-173.595
68.5209
-37.7868
0.445986
-16.6024
-12.5238
-339.38
117.31
-122.364
-47.7481
-97.2317
-92.7204
-169.355
67.9368
-37.5864
-0.0401217
-17.0149
-13.1232
-329.917
116.725
-120.223
-47.4116
-95.9896
-91.8933
-165.912
67.3706
-37.3445
-0.528841
-17.3705
-13.6576
-321.545
115.899
-118.185
-47.2911
-94.9183
-91.2295
-163.115
66.864
-37.0963
-0.980395
-17.6703
-14.1175
-314.32
115.023
-116.343
-47.2829
-94.0096
-90.6888
-160.838
66.4222
-36.8589
-1.38522
-17.9222
-14.5111
-308.173
114.184
-114.732
-47.3416
-93.2568
-90.2601
-158.92
66.028
-36.6388
-1.74538
-18.1345
-14.8465
-302.835
113.399
-113.321
-47.4337
-92.6286
-89.916
-157.324
65.7137
-36.472
-2.02304
-18.2941
-15.0951
-298.391
112.787
-112.208
-47.4939
-92.1257
-89.6301
-11.7023
-92.3329
-49.9029
-62.1076
-53.2294
-48.7694
28.018
-92.4673
-16.4421
-47.0465
-31.4768
-35.486
82.2477
-60.1034
27.0851
-9.4128
8.31834
1.16561
106.794
-36.3512
49.7465
10.8095
28.042
18.7318
121.026
-19.1971
64.3051
24.9014
41.7584
31.5485
127.382
-8.54211
72.6043
33.6178
50.5056
40.1817
136.763
1.59627
80.4797
42.4314
58.9693
48.1543
-13.7518
-91.7796
-50.8142
-62.4795
-53.8975
-49.2751
26.2273
-92.435
-17.6153
-47.6993
-32.3793
-36.1779
79.9991
-61.2233
25.0442
-11.1552
6.27106
-0.781023
104.516
-38.4586
47.2701
8.46424
25.4948
16.2623
118.798
-22.177
61.4703
21.971
38.6763
28.4575
125.087
-12.2007
69.5611
30.2812
47.0679
36.6844
133.124
-3.08667
76.679
38.2389
54.8159
44.0769
-16.1779
-91.0526
-51.8576
-62.8685
-54.6393
-49.8198
24.0379
-92.398
-19.0532
-48.5259
-33.5207
-37.0847
77.2328
-62.6488
22.5322
-13.3265
3.74296
-3.1927
101.653
-41.1654
44.1634
5.48465
22.2856
13.1447
115.945
-25.9046
57.9711
18.3581
34.9181
24.7192
122.35
-16.4449
66.0147
26.4273
43.1172
32.6942
129.65
-7.79168
72.7872
33.979
50.5223
39.8018
-19.2054
-90.3029
-53.2263
-63.4876
-55.7067
-50.6788
21.3674
-92.5521
-20.8804
-49.6836
-35.0694
-38.3867
73.8587
-64.6579
19.373
-16.1771
0.459601
-6.38127
98.191
-44.694
40.3254
1.71055
18.2525
9.19915
112.303
-30.6388
53.616
13.8242
30.2368
20.091
118.784
-21.6049
61.6301
21.7151
38.3018
27.8986
125.92
-12.9082
68.3613
29.2257
45.6655
34.9815
-23.1915
-89.5703
-55.1335
-64.502
-57.3102
-52.0587
17.9102
-93.0272
-23.3241
-51.3636
-37.2483
-40.2981
69.5038
-67.5603
15.2104
-20.0706
-3.97324
-10.7444
93.8112
-49.4041
35.4244
-3.21641
13.0091
4.02328
107.65
-36.6671
48.1458
8.08574
24.3294
14.2469
114.146
-28.0086
56.1418
15.8295
32.2967
21.9451
121.389
-18.9247
63.0311
23.5596
39.854
29.2333
-28.389
-88.9125
-57.7396
-66.0599
-59.6337
-54.1484
13.4668
-93.9669
-26.5647
-53.7454
-40.2734
-43.0396
63.8888
-71.6524
9.77311
-25.2972
-9.86832
-16.5909
88.2306
-55.6104
29.135
-9.64421
6.17791
-2.77046
101.756
-44.2539
41.3012
0.857309
16.8745
6.84187
108.251
-35.8631
49.3492
8.53837
24.844
14.5503
115.839
-26.0626
56.5854
16.7304
32.8159
22.264
-35.2086
-88.433
-61.2732
-68.3501
-62.8949
-57.1678
7.6684
-95.5725
-30.8639
-57.074
-44.4366
-46.9149
56.5929
-77.2762
2.72222
-32.1826
-17.5485
-24.2321
81.0084
-63.6803
21.1091
-17.9318
-2.62668
-11.5687
94.277
-53.7342
32.7247
-8.23226
7.46864
-2.53219
100.712
-45.5073
40.9353
-0.488275
15.5875
5.35719
108.95
-34.6672
48.6982
8.38459
24.1827
13.7054
-44.0074
-88.2313
-65.9271
-71.5572
-67.2954
-61.3341
0.124393
-98.073
-36.5178
-61.6468
-50.0771
-52.2884
47.187
-84.7493
-6.24281
-40.988
-27.3054
-33.9411
71.5737
-73.9919
10.9311
-28.4688
-13.8268
-22.7929
84.6133
-65.4975
22.0128
-19.5654
-4.31894
-14.3181
90.9796
-57.3135
30.5099
-11.623
4.1059
-6.07658
100.191
-45.0603
39.0698
-1.75016
13.639
3.22117
-55.3635
-88.3394
-71.9582
-75.8693
-73.0527
-66.8738
-9.86757
-101.725
-43.9853
-67.8834
-57.6956
-59.6647
35.0044
-94.3511
-17.5099
-51.9931
-39.409
-45.9268
59.2091
-86.8121
-1.80243
-41.4959
-27.6594
-36.5598
71.9803
-79.8321
8.76528
-33.3579
-18.6644
-28.5534
78.335
-71.5461
17.7052
-25.053
-9.77818
-19.7894
88.933
-57.5401
27.3321
-13.8923
1.01634
-9.22192
-69.6411
-88.6545
-79.3574
-81.2223
-80.0364
-73.661
-23.0548
-106.736
-53.7284
-76.2193
-67.7821
-69.5705
19.2369
-106.247
-31.544
-65.5977
-54.408
-60.8142
42.913
-102.505
-17.765
-57.672
-44.9389
-53.7937
55.3138
-97.2358
-7.85112
-50.4803
-36.6551
-46.4686
61.6207
-88.8254
1.64551
-41.7269
-27.1848
-37.0636
74.1459
-72.7819
12.57
-29.0831
-14.9526
-25.0734
-87.2767
-88.787
-87.9975
-87.4107
-87.9673
-81.455
-40.3886
-112.929
-65.9322
-86.6095
-80.2005
-81.7611
-0.95605
-120.016
-48.2645
-81.295
-71.6772
-77.7544
21.7917
-120.475
-36.6959
-76.1285
-64.6111
-73.1112
33.7738
-117.017
-27.4785
-69.8744
-57.0413
-66.4313
39.9774
-108.517
-17.3627
-60.619
-46.8826
-56.2701
54.9435
-90.2291
-4.91858
-46.3124
-33.0557
-42.7088
-108.464
-87.8894
-97.4468
-93.9766
-96.2815
-89.7505
-62.5038
-119.478
-80.5094
-98.7525
-94.6486
-95.9216
-26.473
-134.925
-67.7182
-98.8352
-91.008
-96.5244
-5.27206
-140.219
-58.6776
-96.6419
-86.5368
-94.3934
6.06677
-138.809
-50.2548
-91.4307
-79.7904
-88.4879
12.2363
-130.246
-39.4308
-81.6466
-68.979
-77.6507
30.0049
-109.767
-25.4582
-65.8214
-53.6744
-62.6721
-132.329
-85.0037
-106.482