/*--------------------------------*- C++ -*----------------------------------*\
| =========                 |                                                 |
| \\      /  F ield         | OpenFOAM: The Open Source CFD Toolbox           |
|  \\    /   O peration     | Version:  2206                                  |
|   \\  /    A nd           | Website:  www.openfoam.com                      |
|    \\/     M anipulation  |                                                 |
\*---------------------------------------------------------------------------*/
FoamFile
{
    version     2.0;
    format      ascii;
    arch        "LSB;label=32;scalar=64";
    class       surfaceScalarField;
    location    "500";
    object      phi;
}
// * * * * * * * * * * * * * * * * * * * * * * * * * * * * * * * * * * * * * //

dimensions      [0 3 -1 0 0 0 0];

oriented        oriented;

internalField   nonuniform List<scalar> 
146294
(
-1.60449e-11
2.59527e-11
4.33789e-12
-2.98326e-11
1.69453e-11
1.97067e-11
2.30874e-12
-2.22711e-11
-1.54197e-11
-2.11618e-11
6.71595e-12
1.87939e-11
2.14104e-11
5.92978e-12
1.3062e-11
-2.09044e-11
-6.39294e-11
9.85776e-11
8.1362e-12
-9.93423e-11
6.2786e-11
7.48708e-11
4.21296e-12
-7.48485e-11
-6.49831e-11
-8.17473e-11
2.16684e-11
8.36475e-11
8.12763e-11
2.01429e-11
5.99649e-11
-8.18223e-11
-1.52081e-10
2.27026e-10
1.4156e-11
-2.25891e-10
1.47143e-10
1.72146e-10
8.23537e-12
-1.71336e-10
-1.56162e-10
-1.88402e-10
4.7841e-11
2.01896e-10
1.87023e-10
4.54998e-11
1.45752e-10
-1.88437e-10
-3.08757e-10
4.49019e-10
2.21046e-11
-4.42648e-10
2.9726e-10
3.40281e-10
1.57774e-11
-3.37136e-10
-3.17823e-10
-3.68975e-10
9.01074e-11
4.08096e-10
3.66809e-10
8.77258e-11
2.95506e-10
-3.67699e-10
-5.80755e-10
8.24139e-10
2.79498e-11
-8.04573e-10
5.58552e-10
6.24665e-10
2.34633e-11
-6.14925e-10
-5.97396e-10
-6.66821e-10
1.56571e-10
7.59097e-10
6.64842e-10
1.54189e-10
5.50785e-10
-6.61037e-10
-1.04499e-09
1.4489e-09
1.90197e-11
-1.39744e-09
1.00619e-09
1.09938e-09
2.54126e-11
-1.07163e-09
-1.07206e-09
-1.14931e-09
2.55445e-10
1.34735e-09
1.15043e-09
2.54764e-10
9.79609e-10
-1.132e-09
-1.8501e-09
2.50658e-09
-2.90664e-11
-2.39383e-09
1.78689e-09
1.90522e-09
2.20382e-13
-1.84114e-09
-1.88885e-09
-1.93964e-09
4.07056e-10
2.34301e-09
1.95029e-09
4.06536e-10
1.70817e-09
-1.8964e-09
-3.20279e-09
4.25872e-09
-1.79155e-10
-4.01188e-09
3.10845e-09
3.24375e-09
-1.0174e-10
-3.09487e-09
-3.24717e-09
-3.20227e-09
6.21482e-10
4.00427e-09
3.23944e-09
6.2157e-10
2.92705e-09
-3.10312e-09
-5.41499e-09
7.09638e-09
-5.59924e-10
-6.5837e-09
5.27938e-09
5.43173e-09
-3.91091e-10
-5.108e-09
-5.45205e-09
-5.18028e-09
9.05169e-10
6.72462e-09
5.26544e-09
9.07029e-10
4.94534e-09
-4.9818e-09
-8.81638e-09
1.15025e-08
-1.39103e-09
-1.05611e-08
8.70105e-09
8.78569e-09
-1.02488e-09
-8.21819e-09
-8.75094e-09
-8.14298e-09
1.08892e-09
1.10685e-08
8.38876e-09
1.13538e-09
8.12556e-09
-7.71436e-09
-1.42862e-08
1.8609e-08
-2.94523e-09
-1.69807e-08
1.4201e-08
1.42957e-08
-2.25525e-09
-1.33169e-08
-1.4042e-08
-1.27569e-08
1.14805e-09
1.80835e-08
1.32178e-08
1.29533e-09
1.33661e-08
-1.19908e-08
-2.32956e-08
3.04951e-08
-5.59328e-09
-2.78919e-08
2.3325e-08
2.36053e-08
-4.39861e-09
-2.21009e-08
-2.26643e-08
-2.02141e-08
9.41322e-10
2.98677e-08
2.10412e-08
1.28898e-09
2.22655e-08
-1.88721e-08
-3.62645e-08
4.82846e-08
-9.73756e-09
-4.45503e-08
3.66585e-08
3.75306e-08
-7.59704e-09
-3.57597e-08
-3.48448e-08
-3.08582e-08
-1.48733e-10
4.77846e-08
3.244e-08
7.64214e-10
3.56761e-08
-2.84837e-08
-5.757e-08
7.83249e-08
-1.52096e-08
-7.34037e-08
5.8111e-08
6.15602e-08
-1.23612e-08
-5.98685e-08
-5.44989e-08
-4.82647e-08
-1.55092e-09
7.7615e-08
5.03689e-08
-4.71958e-10
5.84955e-08
-4.39671e-08
-8.7585e-08
1.23608e-07
-2.18013e-08
-1.18053e-07
8.86293e-08
9.81697e-08
-1.81351e-08
-9.79303e-08
-8.20406e-08
-7.26453e-08
-3.25863e-09
1.22197e-07
7.57602e-08
-2.0424e-09
9.29061e-08
-6.58142e-08
-1.01636e-07
1.49567e-07
-2.69144e-08
-1.45238e-07
1.02448e-07
1.2074e-07
-2.27007e-08
-1.22808e-07
-9.49801e-08
-8.44846e-08
-4.46605e-09
1.4795e-07
8.73142e-08
-3.1765e-09
1.14319e-07
-7.69272e-08
-1.12786e-07
1.72235e-07
-3.06572e-08
-1.68823e-07
1.13163e-07
1.41083e-07
-2.60954e-08
-1.45072e-07
-1.05369e-07
-9.43011e-08
-4.86649e-09
1.70398e-07
9.65525e-08
-3.51161e-09
1.33545e-07
-8.64204e-08
-1.2087e-07
1.89443e-07
-3.39177e-08
-1.86069e-07
1.2082e-07
1.57141e-07
-2.91035e-08
-1.62141e-07
-1.12821e-07
-1.01302e-07
-4.90638e-09
1.87999e-07
1.02805e-07
-3.33355e-09
1.49387e-07
-9.37154e-08
-1.28879e-07
2.00312e-07
-3.77211e-08
-1.96018e-07
1.28459e-07
1.67344e-07
-3.26703e-08
-1.73257e-07
-1.19351e-07
-1.0228e-07
-4.54994e-09
1.99442e-07
1.02813e-07
-2.6124e-09
1.61313e-07
-9.69585e-08
-1.35204e-07
2.03368e-07
-4.08831e-08
-1.98741e-07
1.33816e-07
1.70689e-07
-3.62996e-08
-1.78385e-07
-1.23832e-07
-9.79339e-08
-4.51812e-09
2.0432e-07
9.69679e-08
-2.3861e-09
1.68738e-07
-9.6199e-08
-1.34232e-07
1.97557e-07
-4.27953e-08
-1.92823e-07
1.31486e-07
1.66648e-07
-3.9341e-08
-1.75437e-07
-1.22349e-07
-9.02793e-08
-4.73246e-09
2.00368e-07
8.76946e-08
-2.70687e-09
1.68907e-07
-9.22086e-08
-1.2154e-07
1.80566e-07
-4.12209e-08
-1.77893e-07
1.17368e-07
1.54036e-07
-3.97172e-08
-1.63664e-07
-1.11491e-07
-8.11566e-08
-5.20103e-09
1.85596e-07
7.66051e-08
-3.65655e-09
1.60224e-07
-8.63901e-08
-7.98335e-08
1.23813e-07
-3.51975e-08
-1.25713e-07
7.57667e-08
1.07071e-07
-3.52429e-08
-1.16943e-07
-7.43946e-08
-5.65509e-08
-5.06041e-09
1.28783e-07
5.14464e-08
-4.34744e-09
1.13798e-07
-6.25812e-08
-5.03386e-08
8.2334e-08
-2.71508e-08
-8.68982e-08
4.68989e-08
7.19127e-08
-2.8117e-08
-8.15457e-08
-4.78016e-08
-3.78638e-08
-4.13907e-09
8.61329e-08
3.31491e-08
-4.2201e-09
7.75594e-08
-4.36346e-08
-3.0913e-08
5.36926e-08
-1.95199e-08
-5.86549e-08
2.8278e-08
4.7199e-08
-2.07396e-08
-5.55031e-08
-2.996e-08
-2.45509e-08
-3.02256e-09
5.63976e-08
2.07357e-08
-3.54348e-09
5.14563e-08
-2.94792e-08
-1.84677e-08
3.40591e-08
-1.32511e-08
-3.84551e-08
1.66196e-08
3.00987e-08
-1.44218e-08
-3.66044e-08
-1.82609e-08
-1.53147e-08
-1.99286e-09
3.58437e-08
1.25046e-08
-2.65343e-09
3.3076e-08
-1.91783e-08
-1.11929e-08
2.19294e-08
-8.5394e-09
-2.53581e-08
9.92928e-09
1.94599e-08
-9.50808e-09
-2.4271e-08
-1.12801e-08
-9.62381e-09
-1.20283e-09
2.31461e-08
7.62209e-09
-1.8121e-09
2.15376e-08
-1.25382e-08
-6.6258e-09
1.38197e-08
-5.33519e-09
-1.61893e-08
5.80532e-09
1.22964e-08
-6.02774e-09
-1.55896e-08
-6.80175e-09
-5.89579e-09
-7.31589e-10
1.46971e-08
4.55028e-09
-1.191e-09
1.37419e-08
-7.95924e-09
-3.79767e-09
8.39398e-09
-3.20451e-09
-1.00154e-08
3.29903e-09
7.49696e-09
-3.6808e-09
-9.67038e-09
-3.96278e-09
-3.4672e-09
-4.3287e-10
8.95639e-09
2.60934e-09
-7.48035e-10
8.43628e-09
-4.84648e-09
-2.13387e-09
5.00805e-09
-1.84653e-09
-6.06636e-09
1.84176e-09
4.48865e-09
-2.1602e-09
-5.87255e-09
-2.26464e-09
-1.99784e-09
-2.52036e-10
5.35779e-09
1.46932e-09
-4.50456e-10
5.07702e-09
-2.88181e-09
-1.17402e-09
2.94898e-09
-1.01141e-09
-3.61426e-09
1.00999e-09
2.65165e-09
-1.21036e-09
-3.50315e-09
-1.26781e-09
-1.1331e-09
-1.4615e-10
3.16255e-09
8.15581e-10
-2.6153e-10
3.01333e-09
-1.68197e-09
-6.11043e-10
1.67094e-09
-5.17706e-10
-2.0759e-09
5.26146e-10
1.50786e-09
-6.38505e-10
-2.01383e-09
-6.73952e-10
-6.14094e-10
-8.30641e-11
1.79079e-09
4.32332e-10
-1.44296e-10
1.71504e-09
-9.37434e-10
-2.92047e-10
9.0853e-10
-2.39124e-10
-1.14575e-09
2.5364e-10
8.23135e-10
-3.08767e-10
-1.11025e-09
-3.32376e-10
-3.14596e-10
-4.51139e-11
9.70394e-10
2.15837e-10
-7.40448e-11
9.34406e-10
-4.95178e-10
-1.14231e-10
4.59978e-10
-9.2056e-11
-5.92406e-10
1.01821e-10
4.1908e-10
-1.27983e-10
-5.7269e-10
-1.39679e-10
-1.44418e-10
-2.23445e-11
4.87094e-10
9.53451e-11
-3.34196e-11
4.71888e-10
-2.37139e-10
-1.76882e-11
1.98341e-10
-2.33226e-11
-2.67327e-10
1.94714e-11
1.82754e-10
-3.7473e-11
-2.56589e-10
-3.31772e-11
-4.89413e-11
-8.32078e-12
2.04734e-10
2.90824e-11
-1.10157e-11
2.00623e-10
-8.87248e-11
3.13544e-11
5.13106e-11
-8.35382e-11
-2.24481e-11
4.95159e-11
-7.79212e-11
2.22874e-11
2.16396e-12
4.63819e-11
-5.55544e-12
4.79002e-11
-7.23573e-12
-1.25186e-11
1.06079e-11
8.36729e-12
1.2388e-11
5.98152e-12
7.05186e-12
-1.24443e-11
-2.22905e-12
9.25581e-12
1.29299e-12
2.24355e-12
5.42095e-12
9.98558e-13
-2.69741e-12
-6.8121e-13
9.06642e-12
1.31672e-13
7.5765e-13
5.30565e-12
2.69232e-13
-8.22405e-13
-2.54542e-13
9.22083e-12
-2.30991e-13
3.49488e-13
5.32691e-12
1.56489e-14
-2.75789e-13
-1.02202e-13
9.61728e-12
-4.76969e-13
1.8687e-13
5.50436e-12
-1.83859e-13
-9.15488e-14
-4.2467e-14
1.00795e-11
-5.28579e-13
1.16054e-13
5.72792e-12
-2.36426e-13
-2.26793e-14
-1.28108e-14
-5.1809e-13
1.0528e-11
8.17645e-14
-2.8226e-13
5.98756e-12
1.0135e-14
-5.74647e-11
4.87811e-11
4.6599e-11
5.42588e-11
2.82005e-11
3.88474e-11
-5.74039e-11
-1.01134e-11
4.25218e-11
8.12934e-12
9.51993e-12
2.44397e-11
6.82517e-12
-1.2204e-11
-2.8187e-12
4.14482e-11
1.12398e-12
2.94577e-12
2.3751e-11
1.55042e-12
-3.38138e-12
-9.14383e-13
4.21882e-11
-1.25684e-12
1.226e-12
2.42421e-11
-3.81843e-13
-9.86733e-13
-2.9794e-13
4.35459e-11
-2.13202e-12
6.05389e-13
2.5187e-11
-1.17177e-12
-2.45396e-13
-7.23311e-14
4.5046e-11
-2.31001e-12
3.51343e-13
2.62472e-11
-1.38233e-12
1.20935e-14
3.28852e-14
-2.33155e-12
4.66023e-11
2.33829e-13
-1.47899e-12
2.73597e-11
1.26605e-13
-1.40815e-10
1.23127e-10
1.33478e-10
1.32765e-10
7.24632e-11
1.11084e-10
-1.39794e-10
-2.5162e-11
1.09996e-10
2.26649e-11
2.37072e-11
6.4392e-11
1.95284e-11
-2.98344e-11
-7.29275e-12
1.07816e-10
3.00552e-12
7.62275e-12
6.30325e-11
4.09256e-12
-8.45449e-12
-2.48906e-12
1.09671e-10
-3.85052e-12
3.23198e-12
6.44256e-11
-1.67303e-12
-2.58712e-12
-9.15725e-13
1.12563e-10
-5.73858e-12
1.64151e-12
6.65641e-11
-3.46336e-12
-7.51884e-13
-3.24139e-13
1.15607e-10
-6.01004e-12
9.80478e-13
6.88158e-11
-3.85731e-12
-9.91508e-14
-4.96971e-14
-6.00863e-12
1.18666e-10
6.73076e-13
-3.97848e-12
7.108e-11
1.90828e-13
-2.89791e-10
2.63522e-10
2.93359e-10
2.74832e-10
1.58033e-10
2.44111e-10
-2.85205e-10
-5.29593e-11
2.40897e-10
4.77863e-11
5.04867e-11
1.44148e-10
4.19139e-11
-6.14641e-11
-1.62566e-11
2.37906e-10
5.15128e-12
1.71546e-11
1.42486e-10
7.70028e-12
-1.81603e-11
-5.97024e-12
2.4163e-10
-9.12649e-12
7.54548e-12
1.45375e-10
-4.53369e-12
-5.98291e-12
-2.49415e-12
2.46771e-10
-1.23847e-11
3.98053e-12
1.49236e-10
-7.76674e-12
-2.06593e-12
-1.13702e-12
2.51964e-10
-1.2503e-11
2.46013e-12
1.53116e-10
-8.23449e-12
-6.20163e-13
-5.04809e-13
-1.22846e-11
2.56989e-10
1.74512e-12
-8.26709e-12
1.56863e-10
2.91284e-14
-5.50034e-10
5.22619e-10
5.53528e-10
5.26366e-10
3.19444e-10
4.60902e-10
-5.35798e-10
-1.03405e-10
4.87846e-10
8.58218e-11
1.00121e-10
2.98385e-10
7.67619e-11
-1.17234e-10
-3.37378e-11
4.85042e-10
5.6719e-12
3.59939e-11
2.97378e-10
1.13068e-11
-3.63841e-11
-1.32968e-11
4.91781e-10
-1.89998e-11
1.64401e-11
3.02655e-10
-1.01694e-11
-1.29325e-11
-6.12595e-12
5.00138e-10
-2.35752e-11
8.96641e-12
3.08943e-10
-1.50567e-11
-5.11865e-12
-3.22167e-12
5.08158e-10
-2.29981e-11
5.69666e-12
3.1491e-10
-1.53047e-11
-2.11987e-12
-1.86049e-12
-2.21474e-11
5.15757e-10
4.14243e-12
-1.4987e-11
3.20541e-10
-7.54962e-13
-9.9789e-10
9.92824e-10
9.40979e-10
9.65413e-10
6.18356e-10
7.85311e-10
-9.60968e-10
-1.94066e-10
9.44131e-10
1.37554e-10
1.9108e-10
5.89622e-10
1.26197e-10
-2.14772e-10
-6.72026e-11
9.43579e-10
1.01655e-12
7.24189e-11
5.91097e-10
1.28456e-11
-7.02321e-11
-2.81832e-11
9.55077e-10
-3.66131e-11
3.42232e-11
6.00078e-10
-2.0617e-11
-2.67906e-11
-1.39563e-11
9.67939e-10
-4.15995e-11
1.91724e-11
6.09689e-10
-2.6834e-11
-1.17488e-11
-7.99971e-12
9.79679e-10
-3.9212e-11
1.24363e-11
6.183e-10
-2.61928e-11
-5.75608e-12
-5.18908e-12
-3.69694e-11
9.90535e-10
9.20312e-12
-2.50255e-11
6.26178e-10
-2.99101e-12
-1.76958e-09
1.84091e-09
1.48075e-09
1.73161e-09
1.16787e-09
1.23936e-09
-1.6841e-09
-3.56658e-10
1.77773e-09
2.00321e-10
3.56837e-10
1.1326e-09
1.90276e-10
-3.85756e-10
-1.30476e-10
1.78234e-09
-1.49507e-11
1.41763e-10
1.13922e-09
8.44992e-12
-1.32794e-10
-5.76893e-11
1.80108e-09
-6.66959e-11
6.9032e-11
1.15384e-09
-3.90577e-11
-5.3898e-11
-3.01453e-11
1.81989e-09
-6.98275e-11
3.95228e-11
1.16774e-09
-4.5414e-11
-2.55127e-11
-1.8267e-11
1.8365e-09
-6.35253e-11
2.60444e-11
1.17966e-09
-4.25271e-11
-1.3808e-11
-1.26193e-11
-5.8551e-11
1.85115e-09
1.95119e-11
-3.96002e-11
1.18992e-09
-8.33552e-12
-3.07304e-09
3.34746e-09
2.16646e-09
3.04369e-09
2.1598e-09
1.82148e-09
-2.88848e-09
-6.43935e-10
3.27778e-09
2.6016e-10
6.53582e-10
2.12662e-09
2.61657e-10
-6.82352e-10
-2.47558e-10
3.29436e-09
-5.50944e-11
2.70785e-10
2.14391e-09
-1.002e-11
-2.46702e-10
-1.14353e-10
3.32493e-09
-1.18247e-10
1.35402e-10
2.16743e-09
-7.14295e-11
-1.05472e-10
-6.21527e-11
3.35251e-09
-1.14299e-10
7.89114e-11
2.18733e-09
-7.4844e-11
-5.27511e-11
-3.90415e-11
3.37568e-09
-1.00155e-10
5.26124e-11
2.20331e-09
-6.71341e-11
-3.03393e-11
-2.79535e-11
-9.00018e-11
3.39526e-09
3.97302e-11
-6.07693e-11
2.21617e-09
-1.97226e-11
-5.23936e-09
5.95936e-09
2.92239e-09
5.24717e-09
3.9071e-09
2.48806e-09
-4.86932e-09
-1.14469e-09
5.90503e-09
2.82784e-10
1.17566e-09
3.89648e-09
3.19734e-10
-1.19292e-09
-4.5903e-10
5.94359e-09
-1.38724e-10
5.03864e-10
3.93257e-09
-5.44874e-11
-4.50901e-10
-2.19051e-10
5.99072e-09
-2.03175e-10
2.56605e-10
3.96805e-09
-1.25356e-10
-2.00823e-10
-1.22109e-10
6.03012e-09
-1.82505e-10
1.5102e-10
3.99541e-09
-1.19955e-10
-1.04291e-10
-7.8256e-11
6.06095e-09
-1.54028e-10
1.01128e-10
4.01522e-09
-1.03158e-10
-6.21914e-11
-5.70094e-11
-1.3466e-10
6.0863e-09
7.64369e-11
-9.05922e-11
4.03012e-09
-4.19984e-11
-8.67503e-09
1.03368e-08
3.48241e-09
8.84328e-09
6.83156e-09
3.03273e-09
-7.92825e-09
-1.98268e-09
1.03658e-08
1.67851e-10
2.06742e-09
6.90955e-09
2.88736e-10
-2.03065e-09
-8.26292e-10
1.04563e-08
-3.17194e-10
9.13835e-10
6.99212e-09
-1.6343e-10
-8.00318e-10
-4.05339e-10
1.05337e-08
-3.48943e-10
4.73257e-10
7.05148e-09
-2.21688e-10
-3.68792e-10
-2.30272e-10
1.05911e-08
-2.90228e-10
2.80717e-10
7.09107e-09
-1.92926e-10
-1.96845e-10
-1.49432e-10
1.06327e-08
-2.34853e-10
1.88322e-10
7.11647e-09
-1.58181e-10
-1.20079e-10
-1.09773e-10
-1.98917e-10
1.06648e-08
1.42008e-10
-1.34123e-10
7.13308e-09
-8.27581e-11
-1.41814e-08
1.7557e-08
3.57774e-09
1.46077e-08
1.1729e-08
3.31416e-09
-1.28294e-08
-3.36345e-09
1.77336e-08
-1.87614e-10
3.54031e-09
1.19555e-08
1.07541e-10
-3.41054e-09
-1.44145e-09
1.78968e-08
-6.39969e-10
1.60034e-09
1.21028e-08
-3.6633e-10
-1.3864e-09
-7.19421e-10
1.80109e-08
-5.81399e-10
8.37066e-10
1.219e-08
-3.7605e-10
-6.52968e-10
-4.12411e-10
1.80875e-08
-4.51797e-10
4.97454e-10
1.22409e-08
-3.02474e-10
-3.53634e-10
-2.68377e-10
1.81389e-08
-3.50797e-10
3.32442e-10
1.22687e-08
-2.37062e-10
-2.17682e-10
-1.96788e-10
-2.87308e-10
1.81757e-08
2.48621e-10
-1.93855e-10
1.22825e-08
-1.50788e-10
-2.31797e-08
2.9611e-08
2.98148e-09
2.40251e-08
2.00315e-08
3.19196e-09
-2.08288e-08
-5.64671e-09
2.99709e-08
-8.6885e-10
5.9646e-09
2.04817e-08
-2.8261e-10
-5.70943e-09
-2.46681e-09
3.02033e-08
-1.14274e-09
2.73616e-09
2.07108e-08
-6.89733e-10
-2.37351e-09
-1.24325e-09
3.03397e-08
-9.13679e-10
1.43774e-09
2.08227e-08
-5.99656e-10
-1.13267e-09
-7.14203e-10
3.04208e-08
-6.70683e-10
8.52065e-10
2.08758e-08
-4.52819e-10
-6.17028e-10
-4.62799e-10
3.04684e-08
-5.00883e-10
5.64472e-10
2.08956e-08
-3.4053e-10
-3.79777e-10
-3.36056e-10
-3.96297e-10
3.04974e-08
4.16251e-10
-2.68435e-10
2.08959e-08
-2.61676e-10
-3.62405e-08
4.83524e-08
6.57863e-10
3.79864e-08
3.28306e-08
1.97093e-09
-3.21798e-08
-9.03372e-09
4.90343e-08
-2.15458e-09
9.63374e-09
3.36675e-08
-1.07524e-09
-9.08106e-09
-3.99617e-09
4.9365e-08
-1.94257e-09
4.46271e-09
3.4028e-08
-1.214e-09
-3.83467e-09
-2.02063e-09
4.95257e-08
-1.39955e-09
2.34533e-09
3.41765e-08
-9.29239e-10
-1.84016e-09
-1.15601e-09
4.96037e-08
-9.73914e-10
1.37996e-09
3.42296e-08
-6.62384e-10
-1.00068e-09
-7.40942e-10
4.96417e-08
-6.99256e-10
9.01534e-10
3.42372e-08
-4.78094e-10
-6.10888e-10
-5.28498e-10
-5.3297e-10
4.96551e-08
6.51049e-10
-3.62457e-10
3.42168e-08
-4.14706e-10
-5.60351e-08
7.82477e-08
-2.19939e-09
5.82495e-08
5.41061e-08
-4.09533e-10
-4.9273e-08
-1.44506e-08
7.90622e-08
-3.71999e-09
1.51971e-08
5.52128e-08
-2.27445e-09
-1.43616e-08
-6.38422e-09
7.93932e-08
-2.90376e-09
7.01103e-09
5.56467e-08
-1.95431e-09
-6.08088e-09
-3.20531e-09
7.95137e-08
-1.96654e-09
3.65128e-09
5.579e-08
-1.37327e-09
-2.90524e-09
-1.8121e-09
7.95431e-08
-1.31271e-09
2.1198e-09
5.58118e-08
-9.32714e-10
-1.56518e-09
-1.14229e-09
7.95353e-08
-9.09002e-10
1.3602e-09
5.57828e-08
-6.48737e-10
-9.42457e-10
-7.97339e-10
-6.68686e-10
7.95074e-08
9.59961e-10
-4.75312e-10
5.57256e-08
-6.2811e-10
-8.03883e-08
1.2267e-07
-5.85191e-09
8.35591e-08
8.66018e-08
-3.4776e-09
-7.10224e-08
-2.21108e-08
1.23548e-07
-5.58914e-09
2.30975e-08
8.77147e-08
-3.73509e-09
-2.17672e-08
-9.64372e-09
1.23762e-07
-3.98587e-09
1.05081e-08
8.806e-08
-2.80251e-09
-9.14443e-09
-4.75995e-09
1.23746e-07
-2.57312e-09
5.38235e-09
8.80946e-08
-1.85855e-09
-4.30998e-09
-2.63925e-09
1.23657e-07
-1.65512e-09
3.06773e-09
8.80193e-08
-1.21404e-09
-2.2845e-09
-1.62817e-09
1.23555e-07
-1.10582e-09
1.92839e-09
8.79099e-08
-8.16323e-10
-1.35088e-09
-1.10997e-09
-7.83509e-10
1.23448e-07
1.33036e-09
-5.783e-10
8.77846e-08
-8.82763e-10
-8.6706e-08
1.47364e-07
-7.61258e-09
8.90521e-08
1.07168e-07
-4.86542e-09
-7.8169e-08
-2.5396e-08
1.47759e-07
-6.65337e-09
2.60632e-08
1.07646e-07
-4.51092e-09
-2.51007e-08
-1.08552e-08
1.47612e-07
-4.59232e-09
1.16057e-08
1.07635e-07
-3.25574e-09
-1.03947e-08
-5.23803e-09
1.47356e-07
-2.89371e-09
5.81466e-09
1.07455e-07
-2.10796e-09
-4.80919e-09
-2.8352e-09
1.47113e-07
-1.81728e-09
3.23879e-09
1.07249e-07
-1.34674e-09
-2.49775e-09
-1.70388e-09
1.46908e-07
-1.18145e-09
1.98539e-09
1.07058e-07
-8.84093e-10
-1.44503e-09
-1.12869e-09
-8.10489e-10
1.4673e-07
1.33202e-09
-6.09192e-10
1.06882e-07
-9.22385e-10
-8.85185e-08
1.69374e-07
-7.67781e-09
8.96132e-08
1.26733e-07
-4.89342e-09
-8.1676e-08
-2.75985e-08
1.69347e-07
-6.79933e-09
2.77714e-08
1.26665e-07
-4.57083e-09
-2.74719e-08
-1.15667e-08
1.68884e-07
-4.65891e-09
1.20946e-08
1.26358e-07
-3.29327e-09
-1.12249e-08
-5.45757e-09
1.68431e-07
-2.90504e-09
5.92214e-09
1.26012e-07
-2.11815e-09
-5.10151e-09
-2.88249e-09
1.68072e-07
-1.79667e-09
3.21924e-09
1.25714e-07
-1.33665e-09
-2.59686e-09
-1.68492e-09
1.678e-07
-1.14323e-09
1.91955e-09
1.25477e-07
-8.62079e-10
-1.46908e-09
-1.08071e-09
-7.61939e-10
1.67585e-07
1.24675e-09
-5.80068e-10
1.25281e-07
-9.14403e-10
-8.70588e-08
1.87425e-07
-7.02412e-09
8.69891e-08
1.44103e-07
-4.51469e-09
-8.21483e-08
-2.89258e-08
1.87144e-07
-6.23429e-09
2.86433e-08
1.4371e-07
-4.17237e-09
-2.89309e-08
-1.19672e-08
1.86444e-07
-4.26743e-09
1.22738e-08
1.43197e-07
-3.02196e-09
-1.1728e-08
-5.55407e-09
1.85849e-07
-2.65454e-09
5.90015e-09
1.42738e-07
-1.94675e-09
-5.26599e-09
-2.87518e-09
1.85417e-07
-1.62931e-09
3.13878e-09
1.42387e-07
-1.22243e-09
-2.64032e-09
-1.63884e-09
1.85114e-07
-1.02248e-09
1.82181e-09
1.42133e-07
-7.8026e-10
-1.46602e-09
-1.01764e-09
-6.67045e-10
1.84893e-07
1.14303e-09
-5.16517e-10
1.41943e-07
-8.91636e-10
-8.42744e-08
2.0007e-07
-6.74859e-09
8.3381e-08
1.57473e-07
-4.18973e-09
-8.07537e-08
-2.91269e-08
1.99616e-07
-5.31055e-09
2.86599e-08
1.56826e-07
-3.53281e-09
-2.91194e-08
-1.21025e-08
1.98674e-07
-3.55552e-09
1.23319e-08
1.56059e-07
-2.5225e-09
-1.1837e-08
-5.63087e-09
1.97925e-07
-2.20739e-09
5.93436e-09
1.5544e-07
-1.62742e-09
-5.33001e-09
-2.91421e-09
1.97419e-07
-1.36022e-09
3.14976e-09
1.55006e-07
-1.02759e-09
-2.67693e-09
-1.65488e-09
1.97095e-07
-8.5923e-10
1.81702e-09
1.54719e-07
-6.60781e-10
-1.48583e-09
-1.01931e-09
-5.65311e-10
1.96883e-07
1.12777e-09
-4.41401e-10
1.54524e-07
-9.01123e-10
-8.08998e-08
2.06202e-07
-7.16651e-09
7.94434e-08
1.66162e-07
-4.30374e-09
-7.82063e-08
-2.85469e-08
2.06016e-07
-4.71796e-09
2.81421e-08
1.65649e-07
-3.07457e-09
-2.8491e-08
-1.21179e-08
2.05139e-07
-2.9624e-09
1.24013e-08
1.64831e-07
-2.06561e-09
-1.17585e-08
-5.75196e-09
2.044e-07
-1.79856e-09
6.08322e-09
1.64148e-07
-1.30773e-09
-5.38785e-09
-3.02939e-09
2.03891e-07
-1.10175e-09
3.27899e-09
1.63664e-07
-8.22708e-10
-2.75255e-09
-1.74736e-09
2.0356e-07
-6.9711e-10
1.91716e-09
1.63341e-07
-5.30685e-10
-1.55263e-09
-1.09234e-09
-4.61393e-10
2.03342e-07
1.20536e-09
-3.57002e-10
1.63119e-07
-9.56458e-10
-7.55766e-08
2.04079e-07
-9.00111e-09
7.37054e-08
1.68743e-07
-6.0216e-09
-7.3692e-08
-2.74759e-08
2.04629e-07
-4.92014e-09
2.71293e-08
1.68962e-07
-3.40729e-09
-2.7362e-08
-1.19756e-08
2.04095e-07
-2.7479e-09
1.22928e-08
1.68423e-07
-1.97219e-09
-1.15325e-08
-5.81263e-09
2.03524e-07
-1.56886e-09
6.15604e-09
1.67858e-07
-1.15946e-09
-5.39538e-09
-3.1171e-09
2.03101e-07
-9.33344e-10
3.37017e-09
1.6743e-07
-7.04839e-10
-2.80821e-09
-1.82526e-09
2.02818e-07
-5.83697e-10
1.99558e-09
1.67133e-07
-4.48405e-10
-1.61032e-09
-1.15653e-09
-3.85593e-10
2.02629e-07
1.26911e-09
-3.00816e-10
1.66927e-07
-1.00706e-09
-6.79566e-08
1.90809e-07
-1.18285e-08
6.55729e-08
1.62787e-07
-9.16229e-09
-6.73802e-08
-2.52214e-08
1.92341e-07
-5.98568e-09
2.47549e-08
1.64235e-07
-4.62849e-09
-2.54495e-08
-1.11763e-08
1.92374e-07
-3.01862e-09
1.14105e-08
1.64315e-07
-2.34301e-09
-1.08885e-08
-5.48707e-09
1.92095e-07
-1.57672e-09
5.77495e-09
1.64055e-07
-1.23478e-09
-5.1517e-09
-2.96431e-09
1.9182e-07
-8.77802e-10
3.18156e-09
1.6378e-07
-6.9402e-10
-2.70192e-09
-1.74371e-09
1.91613e-07
-5.22243e-10
1.891e-09
1.63563e-07
-4.16927e-10
-1.55685e-09
-1.10818e-09
-3.31362e-10
1.9146e-07
1.2058e-09
-2.67326e-10
1.63396e-07
-9.76587e-10
-4.65729e-08
1.32685e-07
-1.31946e-08
4.4038e-08
1.16659e-07
-1.12654e-08
-4.73297e-08
-1.73651e-08
1.34354e-07
-7.01875e-09
1.67279e-08
1.1859e-07
-5.93373e-09
-1.79934e-08
-7.70423e-09
1.3479e-07
-3.48272e-09
7.72913e-09
1.19185e-07
-2.92353e-09
-7.72194e-09
-3.77037e-09
1.34817e-07
-1.73551e-09
3.90304e-09
1.19279e-07
-1.45449e-09
-3.64528e-09
-2.02501e-09
1.34742e-07
-9.20329e-10
2.13988e-09
1.19231e-07
-7.72239e-10
-1.90036e-09
-1.18196e-09
1.34664e-07
-5.24409e-10
1.26356e-09
1.1916e-07
-4.41548e-10
-1.08543e-09
-7.44267e-10
-3.20386e-10
1.34597e-07
7.99427e-10
-2.713e-10
1.19092e-07
-6.73535e-10
-3.09176e-08
8.80189e-08
-1.24548e-08
2.82941e-08
7.94055e-08
-1.14177e-08
-3.26117e-08
-1.1484e-08
8.90232e-08
-7.24095e-09
1.07e-08
8.09422e-08
-6.55077e-09
-1.24058e-08
-5.06363e-09
8.94003e-08
-3.71969e-09
4.92274e-09
8.15946e-08
-3.33602e-09
-5.30491e-09
-2.45408e-09
8.94853e-08
-1.83433e-09
2.46579e-09
8.18063e-08
-1.63823e-09
-2.48415e-09
-1.30328e-09
8.94788e-08
-9.487e-10
1.33865e-09
8.18579e-08
-8.45913e-10
-1.281e-09
-7.51465e-10
8.94485e-08
-5.2582e-10
7.81974e-10
8.18552e-08
-4.69206e-10
-7.22339e-10
-4.66969e-10
-3.12665e-10
8.94192e-08
4.88988e-10
-2.79893e-10
8.1839e-08
-4.4175e-10
-2.00499e-08
5.67192e-08
-1.0372e-08
1.76491e-08
5.21178e-08
-1.00095e-08
-2.21165e-08
-7.37965e-09
5.68657e-08
-6.60545e-09
6.59682e-09
5.28547e-08
-6.27801e-09
-8.39114e-09
-3.22217e-09
5.69458e-08
-3.59147e-09
3.01328e-09
5.32433e-08
-3.38659e-09
-3.56114e-09
-1.54091e-09
5.69432e-08
-1.7849e-09
1.49256e-09
5.33881e-08
-1.67672e-09
-1.64876e-09
-8.06594e-10
5.69143e-08
-9.12756e-10
7.99966e-10
5.34304e-08
-8.55729e-10
-8.38922e-10
-4.58326e-10
5.68817e-08
-4.97082e-10
4.61196e-10
5.34342e-08
-4.65982e-10
-4.6622e-10
-2.80562e-10
-2.89948e-10
5.68554e-08
2.84526e-10
-2.72378e-10
5.34271e-08
-2.80658e-10
-1.2573e-08
3.53506e-08
-7.88638e-09
1.05838e-08
3.3053e-08
-7.94641e-09
-1.46111e-08
-4.5702e-09
3.48691e-08
-5.42925e-09
3.87572e-09
3.31128e-08
-5.36784e-09
-5.54027e-09
-1.97264e-09
3.46387e-08
-3.14151e-09
1.75286e-09
3.31697e-08
-3.08459e-09
-2.33212e-09
-9.29279e-10
3.45117e-08
-1.58687e-09
8.56982e-10
3.31842e-08
-1.55533e-09
-1.06653e-09
-4.78614e-10
3.44331e-08
-8.07745e-10
4.5257e-10
3.31765e-08
-7.91304e-10
-5.35026e-10
-2.67649e-10
3.43804e-08
-4.34532e-10
2.5711e-10
3.3161e-08
-4.26e-10
-2.92902e-10
-1.61264e-10
-2.49749e-10
3.43454e-08
1.5634e-10
-2.45412e-10
3.31466e-08
-1.73551e-10
-7.94708e-09
2.22814e-08
-5.47363e-09
6.40235e-09
2.10658e-08
-5.69796e-09
-9.72104e-09
-2.82753e-09
2.14562e-08
-4.04986e-09
2.27383e-09
2.06501e-08
-4.11956e-09
-3.65997e-09
-1.20059e-09
2.1e-08
-2.49911e-09
1.01408e-09
2.04121e-08
-2.52652e-09
-1.52117e-09
-5.56054e-10
2.07704e-08
-1.28995e-09
4.88682e-10
2.02914e-08
-1.3051e-09
-6.85772e-10
-2.8142e-10
2.06452e-08
-6.55506e-10
2.53908e-10
2.02212e-08
-6.64159e-10
-3.38982e-10
-1.54758e-10
2.05725e-08
-3.48749e-10
1.41968e-10
2.01776e-08
-3.54029e-10
-1.82844e-10
-9.17557e-11
-1.97736e-10
2.05269e-08
8.50298e-11
-2.01297e-10
2.01481e-08
-1.06707e-10
-4.91586e-09
1.3856e-08
-3.51319e-09
3.79912e-09
1.31846e-08
-3.74794e-09
-6.30654e-09
-1.70965e-09
1.29932e-08
-2.77576e-09
1.29935e-09
1.26069e-08
-2.88647e-09
-2.3645e-09
-7.12605e-10
1.24614e-08
-1.82306e-09
5.68161e-10
1.22247e-08
-1.88527e-09
-9.71957e-10
-3.24568e-10
1.21929e-08
-9.66267e-10
2.69587e-10
1.20304e-08
-1.00248e-09
-4.32707e-10
-1.61424e-10
1.20524e-08
-4.91562e-10
1.37695e-10
1.19273e-08
-5.11782e-10
-2.11077e-10
-8.72809e-11
1.19743e-08
-2.58752e-10
7.57e-11
1.18689e-08
-2.70322e-10
-1.1233e-10
-5.09282e-11
-1.44717e-10
1.19274e-08
4.46377e-11
-1.51744e-10
1.18329e-08
-6.46599e-11
-2.92697e-09
8.34491e-09
-2.13551e-09
2.16276e-09
8.03889e-09
-2.33082e-09
-3.94492e-09
-9.97373e-10
7.63928e-09
-1.78225e-09
7.10218e-10
7.52614e-09
-1.88683e-09
-1.48375e-09
-4.06618e-10
7.15796e-09
-1.23739e-09
3.02468e-10
7.14136e-09
-1.30305e-09
-6.04001e-10
-1.82043e-10
6.90886e-09
-6.76345e-10
1.41162e-10
6.93907e-09
-7.1649e-10
-2.65872e-10
-8.90423e-11
6.78138e-09
-3.45791e-10
7.08617e-11
6.83514e-09
-3.68562e-10
-1.28234e-10
-4.73699e-11
6.71184e-09
-1.80224e-10
3.82742e-11
6.77793e-09
-1.93156e-10
-6.74766e-11
-2.7225e-11
-9.93535e-11
6.67162e-09
2.22075e-11
-1.07017e-10
6.7445e-09
-3.83962e-11
-1.70909e-09
4.95373e-09
-1.23232e-09
1.21142e-09
4.81439e-09
-1.37028e-09
-2.40573e-09
-5.71643e-10
4.43749e-09
-1.07485e-09
3.8103e-10
4.4196e-09
-1.15397e-09
-9.09448e-10
-2.27821e-10
4.05408e-09
-7.82658e-10
1.56704e-10
4.09303e-09
-8.36093e-10
-3.68072e-10
-1.00341e-10
3.84835e-09
-4.41944e-10
7.1714e-11
3.91303e-09
-4.76054e-10
-1.60767e-10
-4.83434e-11
3.74393e-09
-2.28336e-10
3.53731e-11
3.82108e-09
-2.48027e-10
-7.6877e-11
-2.53203e-11
3.68827e-09
-1.18033e-10
1.87533e-11
3.77178e-09
-1.29165e-10
-4.00739e-11
-1.43381e-11
-6.41086e-11
3.65675e-09
1.06967e-11
-7.05948e-11
3.74369e-09
-2.25776e-11
-9.82937e-10
2.90727e-09
-6.6382e-10
6.7081e-10
2.84745e-09
-7.49241e-10
-1.43709e-09
-3.21733e-10
2.55443e-09
-6.00924e-10
2.01028e-10
2.5684e-09
-6.52066e-10
-5.44427e-10
-1.24358e-10
2.27387e-09
-4.56245e-10
7.86591e-11
2.31939e-09
-4.93036e-10
-2.18309e-10
-5.35678e-11
2.11693e-09
-2.66349e-10
3.49596e-11
2.17502e-09
-2.90852e-10
-9.43866e-11
-2.53994e-11
2.03723e-09
-1.40075e-10
1.69105e-11
2.10098e-09
-1.54563e-10
-4.47446e-11
-1.31069e-11
1.99565e-09
-7.21856e-11
8.79436e-12
2.06218e-09
-8.04077e-11
-2.31332e-11
-7.31972e-12
-3.86626e-11
1.97267e-09
4.92856e-12
-4.3396e-11
2.04067e-09
-1.29252e-11
-5.43585e-10
1.64502e-09
-3.31218e-10
3.57461e-10
1.62504e-09
-3.79836e-10
-8.22353e-10
-1.75165e-10
1.42457e-09
-3.07678e-10
1.02643e-10
1.44819e-09
-3.36573e-10
-3.13739e-10
-6.57149e-11
1.23825e-09
-2.42125e-10
3.80263e-11
1.27837e-09
-2.63873e-10
-1.24983e-10
-2.76285e-11
1.12921e-09
-1.45904e-10
1.62938e-11
1.17447e-09
-1.60982e-10
-5.35466e-11
-1.28982e-11
1.07298e-09
-7.86578e-11
7.71556e-12
1.12011e-09
-8.78952e-11
-2.52015e-11
-6.57069e-12
1.04424e-09
-4.07975e-11
3.93579e-12
1.09222e-09
-4.61383e-11
-1.29501e-11
-3.62489e-12
-2.16771e-11
1.02871e-09
2.16525e-12
-2.47449e-11
1.07712e-09
-7.19093e-12
-2.87007e-10
8.91172e-10
-1.46102e-10
1.81684e-10
8.86542e-10
-1.70717e-10
-4.4774e-10
-9.12801e-11
7.62662e-10
-1.37908e-10
5.00991e-11
7.82233e-10
-1.51669e-10
-1.72019e-10
-3.32168e-11
6.48529e-10
-1.12114e-10
1.73835e-11
6.7614e-10
-1.22835e-10
-6.81513e-11
-1.35772e-11
5.78737e-10
-6.95497e-11
7.06503e-12
6.07839e-10
-7.72639e-11
-2.89472e-11
-6.22794e-12
5.41672e-10
-3.86504e-11
3.24562e-12
5.70801e-10
-4.36104e-11
-1.3533e-11
-3.13811e-12
5.22889e-10
-2.04752e-11
1.62258e-12
5.51933e-10
-2.34578e-11
-6.92319e-12
-1.71527e-12
-1.09914e-11
5.13022e-10
8.77433e-13
-1.27363e-11
5.42006e-10
-3.82844e-12
-1.39235e-10
4.46977e-10
-5.08636e-11
8.45356e-11
4.46767e-10
-6.10098e-11
-2.23433e-10
-4.39346e-11
3.78784e-10
-4.82594e-11
2.25429e-11
3.90848e-10
-5.32607e-11
-8.65723e-11
-1.55289e-11
3.15708e-10
-4.07283e-11
7.24754e-12
3.31426e-10
-4.47745e-11
-3.41655e-11
-6.1511e-12
2.75564e-10
-2.59546e-11
2.72657e-12
2.9141e-10
-2.898e-11
-1.43996e-11
-2.76087e-12
2.53366e-10
-1.48821e-11
1.18883e-12
2.68666e-10
-1.69411e-11
-6.68752e-12
-1.37686e-12
2.41907e-10
-8.23142e-12
5.78437e-13
2.56785e-10
-9.56658e-12
-3.40952e-12
-7.49306e-13
-4.67179e-12
2.3603e-10
3.09213e-13
-5.5012e-12
2.50682e-10
-1.88187e-12
-5.50261e-11
1.87854e-10
-9.81923e-12
3.11537e-11
1.88953e-10
-1.25794e-11
-9.15163e-11
-1.75725e-11
1.58025e-10
-9.09829e-12
8.28397e-12
1.64344e-10
-1.00863e-11
-3.62414e-11
-6.09085e-12
1.29236e-10
-8.2987e-12
2.47005e-12
1.36954e-10
-9.13698e-12
-1.43375e-11
-2.34468e-12
1.10245e-10
-5.43782e-12
8.38914e-13
1.1776e-10
-6.09778e-12
-6.01714e-12
-1.02737e-12
9.92575e-11
-3.20846e-12
3.33921e-13
1.06261e-10
-3.69864e-12
-2.77945e-12
-5.06286e-13
9.32622e-11
-1.88626e-12
1.53926e-13
9.98439e-11
-2.24804e-12
-1.41284e-12
-2.75584e-13
-1.27618e-12
9.0058e-11
8.1948e-14
-1.53509e-12
9.63763e-11
-7.79646e-13
-8.92775e-12
4.2518e-11
2.97266e-12
4.37118e-11
-1.73185e-11
-3.41473e-12
3.56591e-11
1.17545e-12
3.80542e-11
-7.84359e-12
-1.23115e-12
2.82502e-11
3.41698e-13
3.09234e-11
-3.23715e-12
-4.74598e-13
2.31878e-11
9.89312e-14
2.57296e-11
-1.37891e-12
-2.05418e-13
2.01541e-11
3.0475e-14
2.24643e-11
-6.39004e-13
-9.96214e-14
1.83559e-11
1.0173e-14
2.0438e-11
-3.23993e-13
-5.45212e-14
1.71298e-11
5.457e-15
1.90282e-11
-1.78832e-13
1.57262e-14
1.10051e-11
-5.43697e-13
5.80583e-14
6.32394e-12
-3.53338e-13
3.77858e-14
2.33356e-14
1.13593e-11
-4.13324e-13
3.81941e-14
6.59702e-12
-2.92397e-13
4.13026e-14
3.30791e-14
1.17339e-11
-4.38642e-13
3.47922e-14