/*--------------------------------*- C++ -*----------------------------------*\
| =========                 |                                                 |
| \\      /  F ield         | OpenFOAM: The Open Source CFD Toolbox           |
|  \\    /   O peration     | Version:  2206                                  |
|   \\  /    A nd           | Website:  www.openfoam.com                      |
|    \\/     M anipulation  |                                                 |
\*---------------------------------------------------------------------------*/
FoamFile
{
    version     2.0;
    format      ascii;
    arch        "LSB;label=32;scalar=64";
    class       volVectorField;
    location    "500";
    object      U;
}
// * * * * * * * * * * * * * * * * * * * * * * * * * * * * * * * * * * * * * //

dimensions      [0 1 -1 0 0 0 0];

internalField   nonuniform List<vector> 
50904
(
(-0.119918 0.467166 1.16832e-05)
(-0.117213 0.458659 1.26658e-05)
(-0.109697 0.465087 -1.10815e-05)
(-0.107379 0.457401 -1.10576e-05)
(-0.119335 0.466697 5.87219e-06)
(-0.116462 0.458545 9.13046e-06)
(-0.108528 0.462931 -2.37986e-05)
(-0.105875 0.455634 -2.35173e-05)
(-0.118585 0.466005 7.0938e-06)
(-0.115499 0.458294 1.35238e-05)
(-0.107105 0.460325 -5.44172e-05)
(-0.104061 0.453518 -5.43425e-05)
(-0.117626 0.464991 1.13451e-05)
(-0.114271 0.457822 2.17978e-05)
(-0.105385 0.457202 -0.0001057)
(-0.101895 0.451006 -0.000106299)
(-0.116404 0.463515 2.05986e-05)
(-0.112712 0.45701 3.58792e-05)
(-0.103324 0.453483 -0.000184723)
(-0.0993335 0.448044 -0.000185887)
(-0.114857 0.461386 4.42144e-05)
(-0.110749 0.455687 6.45625e-05)
(-0.100871 0.449066 -0.000301454)
(-0.096334 0.44456 -0.000301893)
(-0.112894 0.45833 9.73266e-05)
(-0.108279 0.453611 0.000121866)
(-0.0979465 0.443786 -0.00046445)
(-0.0928206 0.440422 -0.000460541)
(-0.110406 0.45397 0.000227403)
(-0.105188 0.450441 0.000254286)
(-0.0944606 0.437409 -0.000686908)
(-0.0887159 0.435435 -0.000670781)
(-0.107344 0.44788 0.0005165)
(-0.101431 0.445771 0.000541299)
(-0.0903659 0.42966 -0.000960999)
(-0.083982 0.429344 -0.000917715)
(-0.103676 0.439678 0.0010349)
(-0.0970201 0.439243 0.00104803)
(-0.085605 0.420179 -0.00121372)
(-0.0785943 0.42183 -0.00111804)
(-0.099376 0.428881 0.00195115)
(-0.091951 0.430393 0.00193488)
(-0.0801341 0.408512 -0.00135024)
(-0.0725117 0.412465 -0.00117278)
(-0.0943798 0.414825 0.0034515)
(-0.0861649 0.418572 0.00338598)
(-0.0738661 0.393966 -0.00118192)
(-0.0656189 0.400576 -0.00090589)
(-0.0887662 0.397207 0.00561317)
(-0.0797896 0.403454 0.00545802)
(-0.0668775 0.376092 -0.000500097)
(-0.0580149 0.385742 -0.000137722)
(-0.0826868 0.375963 0.00828894)
(-0.0729659 0.384888 0.00796759)
(-0.0592723 0.354551 0.000744268)
(-0.0497758 0.367575 0.00112543)
(-0.0767108 0.351816 0.0111164)
(-0.0662737 0.363453 0.0105216)
(-0.051552 0.329664 0.00219512)
(-0.0413021 0.346222 0.00244591)
(-0.0728297 0.330276 0.0130574)
(-0.0617934 0.343928 0.0121457)
(-0.0456461 0.306401 0.00306593)
(-0.0345419 0.325784 0.00303671)
(-0.0718019 0.314746 0.0137985)
(-0.0602928 0.32942 0.0126524)
(-0.0424398 0.288333 0.0032044)
(-0.0304119 0.309397 0.0028327)
(-0.0736619 0.305977 0.014)
(-0.0618137 0.320702 0.0127404)
(-0.0419605 0.276322 0.00296411)
(-0.0289505 0.297888 0.00222952)
(-0.078071 0.30449 0.0141411)
(-0.0660864 0.318401 0.0128993)
(-0.0439278 0.270914 0.00286025)
(-0.0299349 0.291845 0.00178773)
(-0.084847 0.310305 0.0136131)
(-0.0729338 0.32263 0.0126204)
(-0.0484608 0.272728 0.00261213)
(-0.0335356 0.291824 0.00133705)
(-0.0941175 0.323369 0.0128661)
(-0.08247 0.333335 0.0122291)
(-0.0559237 0.282779 0.00270856)
(-0.0402233 0.298743 0.0013738)
(-0.105965 0.343283 0.0113887)
(-0.0948402 0.350121 0.0112275)
(-0.0668396 0.302181 0.00268572)
(-0.0507339 0.313742 0.00158527)
(-0.118674 0.366567 0.00959971)
(-0.108335 0.370002 0.00982426)
(-0.0796339 0.327956 0.00261989)
(-0.0638014 0.334766 0.00201057)
(-0.129751 0.387696 0.00738925)
(-0.120283 0.388099 0.00780343)
(-0.0916249 0.35344 0.00219735)
(-0.0766546 0.356196 0.00206907)
(-0.139044 0.405691 0.00526809)
(-0.130428 0.403459 0.0057137)
(-0.102302 0.376579 0.00159635)
(-0.0885649 0.376005 0.00177512)
(-0.14669 0.420479 0.00355565)
(-0.138827 0.416 0.00394457)
(-0.111479 0.396565 0.00104921)
(-0.0991338 0.393298 0.001345)
(-0.152946 0.432518 0.00229948)
(-0.145723 0.426138 0.00260336)
(-0.11924 0.413494 0.000640793)
(-0.108301 0.408052 0.000932645)
(-0.158081 0.44237 0.00143007)
(-0.151395 0.43438 0.00164885)
(-0.125803 0.427853 0.000368907)
(-0.116196 0.420616 0.00060344)
(-0.16227 0.450308 0.000858035)
(-0.156001 0.440985 0.00100729)
(-0.131241 0.439788 0.000205908)
(-0.122821 0.431088 0.000372353)
(-0.165634 0.456629 0.000497697)
(-0.159691 0.446221 0.000595188)
(-0.135656 0.44951 0.000114027)
(-0.128255 0.439646 0.000221936)
(-0.16833 0.461677 0.000277071)
(-0.162638 0.450389 0.00033843)
(-0.139224 0.457406 6.45981e-05)
(-0.132677 0.446615 0.000129185)
(-0.170496 0.465707 0.00014587)
(-0.164997 0.453708 0.000182943)
(-0.142097 0.463799 3.65382e-05)
(-0.136257 0.452269 7.20738e-05)
(-0.172228 0.468911 7.10466e-05)
(-0.166876 0.456343 9.23969e-05)
(-0.144402 0.468935 2.0677e-05)
(-0.139137 0.45682 3.82968e-05)
(-0.173609 0.47147 3.04599e-05)
(-0.168372 0.458445 4.17778e-05)
(-0.146247 0.473069 1.13329e-05)
(-0.141449 0.460487 1.87551e-05)
(-0.174712 0.473519 1.03554e-05)
(-0.169565 0.460126 1.54862e-05)
(-0.147723 0.476396 5.14706e-06)
(-0.143303 0.463442 7.48134e-06)
(-0.175592 0.475154 1.92667e-06)
(-0.170515 0.461466 3.38365e-06)
(-0.148901 0.479064 1.45972e-07)
(-0.144784 0.465812 4.96625e-07)
(-0.100999 0.464534 5.32334e-06)
(-0.0992817 0.457619 2.35927e-06)
(-0.0946895 0.463791 3.5643e-06)
(-0.0932694 0.457313 7.26526e-07)
(-0.0925297 0.463695 7.38431e-06)
(-0.0911208 0.457386 4.76963e-06)
(-0.0913845 0.463593 6.58618e-06)
(-0.0899922 0.457373 3.72583e-06)
(-0.0907034 0.463532 9.45896e-06)
(-0.0893253 0.457371 5.80995e-06)
(-0.0902428 0.46348 1.0458e-05)
(-0.0888767 0.45736 5.93018e-06)
(-0.089891 0.463433 9.80345e-06)
(-0.0885368 0.45735 6.66897e-06)
(-0.100267 0.463562 -2.56833e-05)
(-0.098331 0.457052 -3.40156e-05)
(-0.0943327 0.462717 -1.80266e-05)
(-0.0927594 0.456605 -2.43214e-05)
(-0.0923896 0.462709 -5.05512e-06)
(-0.0909106 0.456758 -1.24886e-05)
(-0.0913537 0.462544 8.25019e-06)
(-0.0899506 0.456673 -9.53676e-07)
(-0.090741 0.462428 2.59038e-05)
(-0.0893911 0.456609 1.44576e-05)
(-0.0903266 0.462322 4.0238e-05)
(-0.0890158 0.456538 2.6905e-05)
(-0.0900101 0.462224 5.00765e-05)
(-0.0887325 0.456472 3.80321e-05)
(-0.0993222 0.462218 -0.0001033)
(-0.0971217 0.456213 -0.000115169)
(-0.0938383 0.461231 -6.6824e-05)
(-0.0920824 0.455596 -7.61847e-05)
(-0.0921416 0.461258 -2.05198e-05)
(-0.0905738 0.45578 -3.66118e-05)
(-0.091236 0.46101 3.39609e-05)
(-0.0898099 0.455604 1.14193e-05)
(-0.0907038 0.460817 8.93738e-05)
(-0.0893746 0.455458 6.10301e-05)
(-0.0903449 0.460647 0.000134741)
(-0.0890863 0.455318 0.000101817)
(-0.0900716 0.460492 0.000168887)
(-0.0888709 0.455193 0.000135048)
(-0.0981038 0.460363 -0.000258585)
(-0.0955887 0.454987 -0.00027061)
(-0.0931505 0.459167 -0.000157191)
(-0.0911794 0.454158 -0.000168927)
(-0.0917298 0.459153 -4.21802e-05)
(-0.0900496 0.4543 -7.27892e-05)
(-0.0909763 0.458791 9.31577e-05)
(-0.0895093 0.454006 4.66712e-05)
(-0.0905383 0.4585 0.000215358)
(-0.0892166 0.453759 0.000156251)
(-0.0902458 0.458254 0.000312006)
(-0.0890296 0.453539 0.000243411)
(-0.0900254 0.458038 0.000385306)
(-0.0888946 0.453349 0.000311853)
(-0.096534 0.457805 -0.000521849)
(-0.0936506 0.453212 -0.00052722)
(-0.0921894 0.456295 -0.000300128)
(-0.089967 0.4521 -0.000313028)
(-0.0910725 0.456133 -6.06929e-05)
(-0.0892502 0.452107 -0.000113731)
(-0.0904934 0.455617 0.000205994)
(-0.0889603 0.451661 0.000120611)
(-0.0901648 0.455204 0.000431271)
(-0.0888289 0.45129 0.000321671)
(-0.0899505 0.454869 0.000603615)
(-0.088758 0.450981 0.000476548)
(-0.089793 0.454586 0.000733041)
(-0.0887162 0.450721 0.000595243)
(-0.0945144 0.454293 -0.000921271)
(-0.091207 0.450671 -0.000907737)
(-0.0908438 0.452298 -0.000500365)
(-0.0883294 0.449166 -0.000513138)
(-0.090055 0.451856 -5.26415e-05)
(-0.0880529 0.448921 -0.000139104)
(-0.0896718 0.451135 0.00040772)
(-0.0880376 0.44828 0.000262664)
(-0.0894681 0.450572 0.000778613)
(-0.0880858 0.447763 0.000591252)
(-0.0893438 0.450133 0.00105544)
(-0.0881455 0.447352 0.000838362)
(-0.0892592 0.449774 0.00126076)
(-0.0882091 0.447014 0.00102421)
(-0.0919145 0.44949 -0.00147544)
(-0.0881253 0.447077 -0.00142298)
(-0.0889608 0.446758 -0.000747491)
(-0.086107 0.445005 -0.00075933)
(-0.0885194 0.44588 2.32329e-05)
(-0.086291 0.444376 -0.000111693)
(-0.0883524 0.44489 0.000752592)
(-0.0865725 0.443489 0.000520685)
(-0.0882885 0.444147 0.00131708)
(-0.086818 0.442802 0.00101673)
(-0.0882656 0.443587 0.00172963)
(-0.0870223 0.442274 0.00138195)
(-0.0882636 0.443143 0.00203225)
(-0.0872033 0.441852 0.00165251)
(-0.0885776 0.44297 -0.00216324)
(-0.0842521 0.44206 -0.00204105)
(-0.0863516 0.439145 -0.000987548)
(-0.0831029 0.439171 -0.00100112)
(-0.0862689 0.437651 0.000253891)
(-0.0837584 0.438 4.79444e-05)
(-0.0863347 0.436319 0.0013442)
(-0.0843565 0.43681 0.000988338)
(-0.0864246 0.43536 0.00215673)
(-0.0848173 0.435925 0.00169733)
(-0.0865139 0.434662 0.00273711)
(-0.0851806 0.435267 0.0022073)
(-0.0866033 0.434124 0.00315656)
(-0.0854909 0.434753 0.00257842)
(-0.0843567 0.434248 -0.00289186)
(-0.0794471 0.4352 -0.00266256)
(-0.0828071 0.428883 -0.00109667)
(-0.0790982 0.43117 -0.00112596)
(-0.0830795 0.426574 0.00077681)
(-0.08022 0.429293 0.000460279)
(-0.0833885 0.424817 0.00232855)
(-0.0811499 0.427734 0.00179193)
(-0.083642 0.423604 0.00344828)
(-0.0818417 0.426621 0.00276212)
(-0.0838508 0.422745 0.00423129)
(-0.0823767 0.425818 0.0034449)
(-0.0840376 0.422103 0.0047869)
(-0.0828265 0.425207 0.00393159)
(-0.0791303 0.422884 -0.00349716)
(-0.0736201 0.426136 -0.00311926)
(-0.0781345 0.41546 -0.000860332)
(-0.0739107 0.42058 -0.000929351)
(-0.0787432 0.412146 0.00178154)
(-0.0754773 0.417833 0.00130659)
(-0.0793007 0.409897 0.00387272)
(-0.0767508 0.415847 0.00309471)
(-0.0797276 0.408414 0.00533744)
(-0.077691 0.414497 0.00435662)
(-0.080064 0.407394 0.00633878)
(-0.0784119 0.41355 0.00522368)
(-0.0803543 0.406656 0.00703422)
(-0.0790119 0.412849 0.00582693)
(-0.0728243 0.408453 -0.00369537)
(-0.066716 0.414509 -0.00315573)
(-0.0722331 0.398537 6.89866e-05)
(-0.0674542 0.407096 -0.000108071)
(-0.0731639 0.394112 0.0035998)
(-0.0694585 0.403377 0.00287618)
(-0.0739751 0.391337 0.00628822)
(-0.0710971 0.400931 0.00517222)
(-0.0745822 0.389579 0.00811912)
(-0.0723062 0.399335 0.0067466)
(-0.07505 0.388403 0.00933941)
(-0.0732267 0.398248 0.00780046)
(-0.0754451 0.38758 0.0101631)
(-0.0739842 0.397465 0.00851157)
(-0.0653847 0.390534 -0.00317608)
(-0.0586595 0.399903 -0.00249701)
(-0.0650889 0.377981 0.00199337)
(-0.0596987 0.390509 0.0016127)
(-0.0663654 0.372517 0.00641877)
(-0.0621777 0.385853 0.0053506)
(-0.0674611 0.369302 0.0096671)
(-0.0642329 0.383001 0.00812783)
(-0.0682708 0.367346 0.0118198)
(-0.0657495 0.381218 0.00998143)
(-0.0688829 0.366076 0.0132164)
(-0.0668927 0.380038 0.0111889)
(-0.0693887 0.36522 0.0141287)
(-0.0678187 0.379214 0.0119761)
(-0.0570205 0.369126 -0.00164365)
(-0.049698 0.382335 -0.000929883)
(-0.0570387 0.354241 0.00518638)
(-0.0510179 0.371139 0.00443022)
(-0.0587501 0.348056 0.0103886)
(-0.0540803 0.365753 0.00883323)
(-0.0601888 0.344616 0.0140467)
(-0.0566342 0.362635 0.0119815)
(-0.0612322 0.342604 0.0163969)
(-0.058505 0.36076 0.0140241)
(-0.062001 0.341332 0.0178743)
(-0.0598909 0.359552 0.0153155)
(-0.0626184 0.340511 0.0188024)
(-0.0609873 0.358737 0.0161251)
(-0.0481925 0.34477 0.000769117)
(-0.0402464 0.3621 0.00137307)
(-0.0486278 0.32852 0.00911415)
(-0.0419559 0.3497 0.00789195)
(-0.0509455 0.322022 0.0148434)
(-0.0457986 0.343849 0.0127555)
(-0.0528342 0.318592 0.0186836)
(-0.048979 0.340617 0.0160893)
(-0.0541691 0.316676 0.0210682)
(-0.051273 0.338753 0.0181879)
(-0.0551218 0.315509 0.0225167)
(-0.0529321 0.337595 0.0194745)
(-0.0558507 0.314768 0.0233844)
(-0.054198 0.336818 0.0202464)
(-0.039662 0.318381 0.00356019)
(-0.0309414 0.339839 0.00385303)
(-0.0407029 0.302302 0.0125365)
(-0.0332751 0.327233 0.0109041)
(-0.0438248 0.295987 0.0183733)
(-0.038137 0.321241 0.0158922)
(-0.0462742 0.292837 0.0221037)
(-0.0420838 0.318056 0.0191773)
(-0.0479464 0.291157 0.0243383)
(-0.0448622 0.316283 0.0211832)
(-0.0490925 0.29017 0.0256478)
(-0.0468098 0.315213 0.0223749)
(-0.0499294 0.289574 0.0263996)
(-0.0482428 0.314523 0.0230638)
(-0.0334352 0.29496 0.00542395)
(-0.0237758 0.319539 0.00528594)
(-0.0350515 0.280009 0.014087)
(-0.0267814 0.307315 0.0121684)
(-0.0388803 0.274191 0.0196182)
(-0.0325845 0.301385 0.0169613)
(-0.0417822 0.27143 0.0230226)
(-0.0371881 0.298314 0.0200332)
(-0.0437012 0.27002 0.025006)
(-0.04035 0.296653 0.0218715)
(-0.0449691 0.269219 0.0261381)
(-0.0425005 0.295676 0.0229415)
(-0.0458554 0.26876 0.0267699)
(-0.0440285 0.295071 0.023547)
(-0.0301025 0.277096 0.00588059)
(-0.0193758 0.303391 0.00533874)
(-0.0319922 0.263406 0.0136656)
(-0.0228254 0.291598 0.0116318)
(-0.0362345 0.258151 0.0187037)
(-0.0292858 0.285805 0.0160797)
(-0.0393759 0.255767 0.0217358)
(-0.0343188 0.282867 0.0188871)
(-0.0414024 0.254597 0.0234719)
(-0.037705 0.281315 0.0205466)
(-0.0427016 0.253949 0.0244477)
(-0.039949 0.280417 0.0215009)
(-0.0435756 0.25359 0.0249848)
(-0.0414943 0.279879 0.022036)
(-0.0294429 0.264971 0.00539879)
(-0.0175629 0.291599 0.00448444)
(-0.0311907 0.252249 0.0119192)
(-0.0211093 0.279974 0.00987859)
(-0.0354744 0.247452 0.0163659)
(-0.0278492 0.274281 0.0139088)
(-0.0386154 0.245353 0.0190574)
(-0.0330398 0.271444 0.0164781)
(-0.0406081 0.244353 0.020601)
(-0.0364787 0.269971 0.0180028)
(-0.0418572 0.243811 0.0214691)
(-0.0387114 0.269127 0.018881)
(-0.0426706 0.243508 0.0219475)
(-0.0402086 0.268631 0.019375)
(-0.0313067 0.258984 0.00480231)
(-0.0182637 0.284522 0.00351269)
(-0.0325362 0.24664 0.00989044)
(-0.0215821 0.272594 0.007819)
(-0.0364357 0.242163 0.0135165)
(-0.0281245 0.26698 0.0112092)
(-0.0393054 0.240266 0.0157874)
(-0.0331316 0.264251 0.0134428)
(-0.0411181 0.239383 0.0171199)
(-0.036426 0.262856 0.0147963)
(-0.0422468 0.238911 0.0178811)
(-0.0385492 0.262066 0.015588)
(-0.0429716 0.238635 0.0183048)
(-0.0399573 0.26159 0.0160391)
(-0.0357615 0.260069 0.0046986)
(-0.021633 0.28299 0.00309535)
(-0.0360857 0.247479 0.00833401)
(-0.0243348 0.270271 0.00624001)
(-0.0392292 0.243078 0.0109668)
(-0.0302284 0.264623 0.00880783)
(-0.041612 0.241259 0.0126812)
(-0.0347592 0.261954 0.0105625)
(-0.0431324 0.240425 0.0137217)
(-0.0377469 0.260608 0.011657)
(-0.0440838 0.239982 0.0143354)
(-0.0396776 0.259847 0.0123158)
(-0.0446966 0.239721 0.0146907)
(-0.0409632 0.259389 0.0127059)
(-0.0430211 0.269588 0.00557997)
(-0.027973 0.288332 0.00379498)
(-0.0420183 0.256416 0.00793013)
(-0.0295328 0.274551 0.00582727)
(-0.0441555 0.251817 0.009446)
(-0.0344208 0.268659 0.00740498)
(-0.0459207 0.249931 0.0104635)
(-0.0382743 0.265935 0.00852897)
(-0.0470781 0.249071 0.0111081)
(-0.0408422 0.264578 0.00925918)
(-0.0478106 0.248614 0.0115033)
(-0.042513 0.263813 0.00971455)
(-0.0482848 0.248345 0.0117417)
(-0.043633 0.263354 0.00999507)
(-0.0534036 0.289276 0.00752862)
(-0.037768 0.30243 0.00585789)
(-0.0508882 0.275833 0.00913855)
(-0.0378144 0.287816 0.00716087)
(-0.0519103 0.270969 0.00953497)
(-0.041473 0.281575 0.00766828)
(-0.052989 0.268951 0.00969495)
(-0.0445161 0.278713 0.00796618)
(-0.0537365 0.268043 0.00979923)
(-0.0465735 0.277312 0.00816903)
(-0.0542157 0.267578 0.00987578)
(-0.047914 0.276543 0.00830846)
(-0.0545063 0.267246 0.00992658)
(-0.0487954 0.276041 0.00840077)
(-0.065705 0.317376 0.00906753)
(-0.0501168 0.324636 0.0079272)
(-0.0619649 0.305206 0.0110238)
(-0.0487172 0.31061 0.00946964)
(-0.0620146 0.300566 0.0108498)
(-0.0511647 0.304426 0.00934221)
(-0.0624642 0.298564 0.0103023)
(-0.0533856 0.301528 0.00890285)
(-0.0628265 0.297659 0.00987188)
(-0.0549148 0.300115 0.00855532)
(-0.0630627 0.297202 0.00959168)
(-0.0559062 0.299355 0.00832746)
(-0.063191 0.296878 0.00941308)
(-0.0565417 0.298862 0.00818113)
(-0.0773859 0.346264 0.00898485)
(-0.0624228 0.348709 0.00849587)
(-0.0729078 0.337133 0.0118108)
(-0.0599728 0.337147 0.0108912)
(-0.0722935 0.333596 0.0118116)
(-0.0614738 0.331883 0.0108521)
(-0.0722764 0.331978 0.0109825)
(-0.0630123 0.329297 0.0100606)
(-0.0723454 0.331237 0.0102366)
(-0.0640967 0.328022 0.00935116)
(-0.0723972 0.330865 0.00971519)
(-0.0647977 0.32734 0.00885221)
(-0.0724094 0.33061 0.00937154)
(-0.0652379 0.326909 0.00852008)
(-0.0877921 0.372602 0.00759925)
(-0.0738598 0.371357 0.00760875)
(-0.0828241 0.367314 0.0109639)
(-0.0705924 0.363359 0.0106582)
(-0.0817706 0.365573 0.0115121)
(-0.0713821 0.359814 0.0111475)
(-0.0814202 0.364695 0.0107515)
(-0.0723812 0.357939 0.0103753)
(-0.0812747 0.364298 0.00991876)
(-0.0731091 0.356998 0.00953579)
(-0.0811924 0.364102 0.00929657)
(-0.0735789 0.356493 0.00890479)
(-0.0811231 0.363964 0.00887457)
(-0.0738683 0.356179 0.00847226)
(-0.0966592 0.394945 0.00572271)
(-0.0839904 0.39093 0.00598698)
(-0.0912234 0.393167 0.00899797)
(-0.0799561 0.386482 0.00910124)
(-0.0898401 0.393402 0.010044)
(-0.0801729 0.385006 0.0101251)
(-0.0892394 0.393431 0.00952149)
(-0.0807398 0.384091 0.00957679)
(-0.0889323 0.39347 0.00876001)
(-0.081181 0.383617 0.00878298)
(-0.0887499 0.3935 0.0081489)
(-0.0814664 0.383358 0.00814102)
(-0.0886215 0.393498 0.00772271)
(-0.0816377 0.383191 0.00768818)
(-0.104087 0.413384 0.00395838)
(-0.0927761 0.407271 0.00428705)
(-0.098081 0.41415 0.00669984)
(-0.08791 0.405621 0.00698136)
(-0.0963812 0.416064 0.00797758)
(-0.0875856 0.406041 0.00828855)
(-0.0955674 0.416939 0.00771684)
(-0.0877749 0.406096 0.00801841)
(-0.0951269 0.417396 0.0071018)
(-0.0879716 0.406109 0.00737114)
(-0.0948636 0.417641 0.00656592)
(-0.0881027 0.406106 0.00680039)
(-0.094689 0.417766 0.00618147)
(-0.0881776 0.406089 0.00638508)
(-0.110319 0.428645 0.00254867)
(-0.100356 0.420866 0.0028425)
(-0.103622 0.430906 0.00459124)
(-0.094571 0.42105 0.00490108)
(-0.101565 0.433961 0.00582627)
(-0.0936741 0.422876 0.00619985)
(-0.100546 0.435487 0.00577744)
(-0.0935049 0.423742 0.00616292)
(-0.0999825 0.43627 0.00532743)
(-0.0934779 0.424169 0.00568799)
(-0.0996468 0.436682 0.0048928)
(-0.0934712 0.424383 0.00522015)
(-0.0994311 0.4369 0.0045712)
(-0.093461 0.424488 0.00486808)
(-0.115447 0.441109 0.00154808)
(-0.106734 0.432018 0.0017711)
(-0.108006 0.44404 0.00293563)
(-0.10003 0.433239 0.00319658)
(-0.105551 0.44765 0.00394927)
(-0.0985326 0.435889 0.00428478)
(-0.104326 0.449574 0.00403337)
(-0.0980159 0.437317 0.00439793)
(-0.103647 0.450562 0.00373644)
(-0.0977808 0.43804 0.00408868)
(-0.103244 0.451077 0.00340734)
(-0.097649 0.438409 0.0037345)
(-0.102991 0.451349 0.0031541)
(-0.0975635 0.4386 0.00345625)
(-0.119602 0.451158 0.000894766)
(-0.112004 0.44106 0.00104596)
(-0.111438 0.454252 0.00176913)
(-0.104452 0.442802 0.00195609)
(-0.108562 0.457939 0.0025034)
(-0.102352 0.445772 0.00275625)
(-0.107132 0.46002 0.00264158)
(-0.1015 0.447508 0.00292945)
(-0.106343 0.461101 0.00246825)
(-0.101073 0.448409 0.00275334)
(-0.105879 0.461658 0.00223423)
(-0.100827 0.448868 0.00250125)
(-0.105592 0.461951 0.00204442)
(-0.100674 0.449108 0.00229142)
(-0.12296 0.459279 0.0004901)
(-0.116325 0.448403 0.000583819)
(-0.114133 0.462264 0.00100152)
(-0.108022 0.450362 0.00112115)
(-0.110836 0.465701 0.00147981)
(-0.10534 0.453285 0.00164874)
(-0.109202 0.467739 0.00161594)
(-0.104167 0.455101 0.0018167)
(-0.108308 0.468818 0.00153331)
(-0.103561 0.45607 0.0017373)
(-0.107788 0.46937 0.00138155)
(-0.103213 0.456564 0.00157394)
(-0.10747 0.469659 0.00124874)
(-0.103 0.456821 0.00142626)
(-0.125664 0.465844 0.000250531)
(-0.119841 0.454365 0.000303629)
(-0.116257 0.468599 0.000524585)
(-0.110899 0.456385 0.000592857)
(-0.112561 0.4716 0.0008048)
(-0.107679 0.459037 0.000905017)
(-0.110726 0.473448 0.000908893)
(-0.106201 0.460755 0.00103307)
(-0.109735 0.474452 0.0008827)
(-0.105432 0.461704 0.00101316)
(-0.109163 0.474969 0.000797098)
(-0.104992 0.462191 0.000921931)
(-0.108818 0.475236 0.000713049)
(-0.104726 0.462443 0.000828148)
(-0.127836 0.471124 0.000115913)
(-0.122689 0.459181 0.000142914)
(-0.117935 0.473624 0.000246279)
(-0.113215 0.4612 0.000280043)
(-0.113877 0.476118 0.000391069)
(-0.109513 0.463475 0.000442305)
(-0.111852 0.477686 0.000455799)
(-0.107753 0.464977 0.000521873)
(-0.110767 0.478566 0.000456321)
(-0.106834 0.465838 0.000528865)
(-0.11015 0.479025 0.000418403)
(-0.106313 0.46629 0.000490024)
(-0.109781 0.479263 0.000374357)
(-0.106001 0.466524 0.000441033)
(-0.129582 0.475378 4.5094e-05)
(-0.124991 0.463074 5.68074e-05)
(-0.119267 0.477636 9.5745e-05)
(-0.115077 0.465066 0.00010933)
(-0.11489 0.479617 0.00015781)
(-0.110957 0.466932 0.000179038)
(-0.112689 0.480865 0.000189453)
(-0.108943 0.468156 0.000217893)
(-0.111517 0.481582 0.000196404)
(-0.107885 0.468878 0.00022936)
(-0.110858 0.481969 0.000186558)
(-0.107293 0.46927 0.00022109)
(-0.110468 0.482173 0.000172231)
(-0.106942 0.469479 0.000205692)
(-0.130981 0.478807 1.22245e-05)
(-0.126845 0.466218 1.60789e-05)
(-0.120325 0.480845 2.4975e-05)
(-0.116573 0.468173 2.87044e-05)
(-0.115675 0.482347 4.39497e-05)
(-0.112095 0.469643 4.99535e-05)
(-0.113317 0.483268 5.44754e-05)
(-0.109857 0.470568 6.28934e-05)
(-0.112064 0.483803 5.8675e-05)
(-0.108675 0.471116 6.91586e-05)
(-0.111365 0.484102 5.93439e-05)
(-0.108017 0.471427 7.1551e-05)
(-0.110957 0.484268 6.0932e-05)
(-0.107632 0.471604 7.40433e-05)
(-0.132098 0.481558 4.13718e-07)
(-0.128331 0.468746 9.83176e-07)
(-0.121166 0.483408 6.91444e-07)
(-0.117769 0.470664 9.19921e-07)
(-0.116285 0.484484 2.72335e-06)
(-0.112994 0.471773 3.18107e-06)
(-0.113792 0.485098 3.63988e-06)
(-0.110563 0.472409 4.38917e-06)
(-0.112464 0.485445 3.88386e-06)
(-0.10927 0.472773 5.01292e-06)
(-0.111726 0.485642 4.01151e-06)
(-0.10855 0.472981 5.57777e-06)
(-0.1113 0.485759 7.90425e-06)
(-0.108134 0.47311 1.0296e-05)
(-0.0895752 0.463394 7.32986e-06)
(-0.0882307 0.457334 7.12676e-06)
(-0.089304 0.46337 5.04389e-06)
(-0.0879706 0.457325 6.89754e-06)
(-0.0890738 0.463345 5.05719e-06)
(-0.0877555 0.457315 7.41161e-06)
(-0.0887951 0.463315 6.61478e-06)
(-0.0874982 0.457301 8.7145e-06)
(-0.0883135 0.463267 7.59383e-06)
(-0.087054 0.45728 9.70098e-06)
(-0.0871651 0.463184 6.08613e-06)
(-0.0859723 0.457253 9.60319e-06)
(-0.0897258 0.46213 5.64671e-05)
(-0.0884778 0.456401 4.81269e-05)
(-0.0894809 0.462052 5.99598e-05)
(-0.0882614 0.456339 5.52983e-05)
(-0.0892732 0.461981 6.22535e-05)
(-0.0880825 0.456285 5.9814e-05)
(-0.0890224 0.461898 6.32935e-05)
(-0.0878684 0.45622 6.2462e-05)
(-0.0885906 0.461763 5.92215e-05)
(-0.0874991 0.456115 6.07136e-05)
(-0.0875709 0.461507 4.35322e-05)
(-0.086606 0.455904 5.08231e-05)
(-0.0898277 0.460345 0.000195165)
(-0.0886791 0.455065 0.000163718)
(-0.0896179 0.460215 0.000211215)
(-0.0885172 0.45495 0.000183642)
(-0.0894406 0.460103 0.000218524)
(-0.0883839 0.454854 0.000194302)
(-0.0892272 0.45997 0.000218652)
(-0.0882251 0.454741 0.000198344)
(-0.0888611 0.459751 0.00020408)
(-0.0879511 0.454551 0.000190543)
(-0.0880026 0.4593 0.000159357)
(-0.0872914 0.454135 0.000158931)
(-0.0898313 0.457836 0.000443558)
(-0.0887779 0.453164 0.000369302)
(-0.0896655 0.457655 0.000481046)
(-0.0886819 0.452996 0.000409063)
(-0.0895267 0.457502 0.00049948)
(-0.0886045 0.452856 0.000430518)
(-0.0893612 0.457323 0.000503821)
(-0.0885138 0.452695 0.000439888)
(-0.0890792 0.457025 0.000482791)
(-0.0883579 0.452424 0.000429698)
(-0.088423 0.456369 0.000403714)
(-0.087985 0.451793 0.000373147)
(-0.0896587 0.454326 0.000836821)
(-0.0886871 0.450475 0.000693291)
(-0.0895463 0.454092 0.00090598)
(-0.0886686 0.450251 0.000761382)
(-0.0894544 0.453898 0.000942631)
(-0.0886577 0.450068 0.000799072)
(-0.089348 0.453674 0.000957977)
(-0.0886487 0.449859 0.000818558)
(-0.0891703 0.4533 0.000939912)
(-0.0886359 0.449508 0.000812537)
(-0.0887651 0.452443 0.000838796)
(-0.0886106 0.448663 0.000741482)
(-0.0891948 0.449451 0.00142589)
(-0.08828 0.446704 0.00117622)
(-0.089145 0.44916 0.00153846)
(-0.0883505 0.44642 0.00128227)
(-0.0891088 0.448922 0.00160142)
(-0.0884168 0.446192 0.0013424)
(-0.0890729 0.448652 0.00163527)
(-0.088504 0.445935 0.00137723)
(-0.0890207 0.448204 0.00163157)
(-0.0886606 0.445504 0.00138276)
(-0.0889205 0.447157 0.00153785)
(-0.0890493 0.444453 0.00131899)
(-0.0882785 0.44275 0.00227555)
(-0.0873859 0.441473 0.00187182)
(-0.0883002 0.442396 0.00244405)
(-0.0875566 0.441125 0.00202535)
(-0.0883282 0.442112 0.00254176)
(-0.0877109 0.44085 0.00211383)
(-0.0883742 0.441794 0.00260181)
(-0.0879091 0.440544 0.00216871)
(-0.0884689 0.44127 0.00262443)
(-0.0882625 0.440033 0.00219251)
(-0.0887291 0.440041 0.00257561)
(-0.0891352 0.438786 0.00216041)
(-0.086706 0.433657 0.00349143)
(-0.0857968 0.434303 0.00287516)
(-0.0868073 0.433234 0.00372466)
(-0.0860788 0.433888 0.00308209)
(-0.0869074 0.432899 0.00386211)
(-0.0863323 0.433563 0.00320122)
(-0.0870461 0.432532 0.00395197)
(-0.0866566 0.433207 0.00327628)
(-0.0873079 0.431931 0.00400615)
(-0.0872357 0.432617 0.00331722)
(-0.0879809 0.430528 0.00402864)
(-0.0886652 0.431187 0.00332624)
(-0.0842339 0.421555 0.00522474)
(-0.0832654 0.424683 0.0043138)
(-0.0844209 0.421059 0.00552751)
(-0.0836685 0.424199 0.00457657)
(-0.0845998 0.420673 0.0057037)
(-0.0840314 0.423826 0.00472379)
(-0.0848412 0.420259 0.00581674)
(-0.0844971 0.423424 0.00481087)
(-0.0852893 0.419588 0.00588854)
(-0.085331 0.422765 0.00485165)
(-0.0864233 0.418038 0.0059698)
(-0.0873909 0.421179 0.0048747)
(-0.0806489 0.406035 0.0075743)
(-0.0795927 0.412262 0.00629104)
(-0.080927 0.405473 0.00794277)
(-0.0801265 0.411716 0.00660347)
(-0.0811897 0.405042 0.00815254)
(-0.0806081 0.411301 0.00677166)
(-0.0815407 0.404587 0.00828066)
(-0.0812279 0.410861 0.00686024)
(-0.0821878 0.403856 0.00835343)
(-0.0823409 0.410143 0.00688011)
(-0.0838134 0.40218 0.00844914)
(-0.0850922 0.408431 0.00686246)
(-0.0758383 0.386902 0.0107881)
(-0.074712 0.396827 0.00904304)
(-0.076209 0.386286 0.0112024)
(-0.0753823 0.396231 0.00938777)
(-0.0765574 0.385823 0.0114242)
(-0.0759883 0.395785 0.00955782)
(-0.077021 0.385344 0.0115366)
(-0.0767702 0.395321 0.00962008)
(-0.0778731 0.384585 0.0115539)
(-0.0781782 0.394573 0.00956705)
(-0.0800036 0.382863 0.011539)
(-0.0816626 0.392805 0.00938936)
(-0.0698818 0.364525 0.0148033)
(-0.068698 0.37856 0.0125459)
(-0.0703465 0.363893 0.0152342)
(-0.0695091 0.377943 0.0128988)
(-0.0707807 0.363425 0.0154454)
(-0.0702418 0.377488 0.0130519)
(-0.0713554 0.362953 0.0155172)
(-0.0711874 0.377025 0.0130669)
(-0.0724081 0.362211 0.0154365)
(-0.0728925 0.376283 0.0129045)
(-0.0750259 0.360542 0.0151907)
(-0.0771143 0.37454 0.0124617)
(-0.0632062 0.339852 0.0194691)
(-0.0620119 0.358104 0.0166914)
(-0.0637607 0.33925 0.019873)
(-0.0629584 0.357501 0.017021)
(-0.064274 0.33881 0.0200438)
(-0.0638096 0.357062 0.0171366)
(-0.0649485 0.33838 0.0200477)
(-0.0649051 0.356625 0.0170863)
(-0.0661788 0.337711 0.0198295)
(-0.0668799 0.355931 0.016789)
(-0.0692186 0.336223 0.0192462)
(-0.0717698 0.354311 0.0160072)
(-0.0565374 0.314241 0.0239681)
(-0.0553678 0.336278 0.0207512)
(-0.0571653 0.313698 0.0243109)
(-0.0564279 0.335709 0.0210353)
(-0.0577448 0.313323 0.0244285)
(-0.0573786 0.33531 0.0211099)
(-0.0584999 0.312973 0.0243618)
(-0.0585965 0.334924 0.0210033)
(-0.0598674 0.312434 0.0240117)
(-0.0607864 0.334311 0.0205976)
(-0.0632047 0.311263 0.0230937)
(-0.0661813 0.332904 0.0195298)
(-0.0506822 0.289176 0.0268818)
(-0.0495218 0.314064 0.0234971)
(-0.0513617 0.288737 0.027147)
(-0.0506665 0.313556 0.0237298)
(-0.051983 0.288445 0.0272155)
(-0.0516867 0.313205 0.0237745)
(-0.0527835 0.288187 0.0271082)
(-0.0529842 0.312873 0.0236454)
(-0.0542199 0.287792 0.0267044)
(-0.0553059 0.312343 0.0232122)
(-0.0576495 0.286965 0.0256515)
(-0.0609511 0.311155 0.0220679)
(-0.0466226 0.268466 0.0271611)
(-0.0453516 0.294675 0.0239219)
(-0.0473119 0.268126 0.0273675)
(-0.0465288 0.294225 0.0241229)
(-0.047937 0.267905 0.0274124)
(-0.0475719 0.293914 0.0241628)
(-0.0487351 0.267724 0.0273083)
(-0.0488899 0.293626 0.0240534)
(-0.050156 0.267451 0.0269433)
(-0.0512367 0.293163 0.0236803)
(-0.0534663 0.2669 0.0259943)
(-0.0568524 0.292148 0.022688)
(-0.0443156 0.253375 0.0253131)
(-0.042807 0.279533 0.0223699)
(-0.0449797 0.253105 0.0254941)
(-0.0439741 0.279123 0.0225623)
(-0.0455797 0.252934 0.0255458)
(-0.0450047 0.278841 0.0226206)
(-0.0463409 0.252805 0.0254832)
(-0.0463005 0.278582 0.0225627)
(-0.047688 0.252615 0.0252255)
(-0.0485984 0.278162 0.0223102)
(-0.0507557 0.252245 0.0245403)
(-0.0540109 0.277263 0.0216162)
(-0.0433533 0.243347 0.0222461)
(-0.0414693 0.268322 0.0196932)
(-0.0439678 0.24312 0.022429)
(-0.0425944 0.267938 0.0198978)
(-0.0445222 0.24298 0.0225073)
(-0.043586 0.267675 0.0199884)
(-0.045223 0.242885 0.0225055)
(-0.0448282 0.267437 0.0199947)
(-0.0464576 0.242748 0.0223838)
(-0.0470243 0.267049 0.0198804)
(-0.0492156 0.242491 0.0220239)
(-0.0521278 0.266239 0.0195221)
(-0.0435776 0.238511 0.0185929)
(-0.0411414 0.261318 0.0163542)
(-0.0441252 0.238306 0.0187871)
(-0.0421983 0.260946 0.016578)
(-0.0446183 0.238184 0.0188971)
(-0.0431252 0.260696 0.0167054)
(-0.0452391 0.238107 0.018958)
(-0.0442804 0.260473 0.0167782)
(-0.046329 0.237999 0.018971)
(-0.0463172 0.260108 0.0168028)
(-0.0487358 0.237798 0.0189232)
(-0.0510359 0.259363 0.0167692)
(-0.0452127 0.239605 0.0149452)
(-0.0420503 0.259133 0.0129928)
(-0.0456802 0.23941 0.0151332)
(-0.0430182 0.258764 0.013215)
(-0.0460983 0.239292 0.0152585)
(-0.0438583 0.25852 0.0133603)
(-0.0466209 0.239218 0.0153616)
(-0.0448963 0.258307 0.0134769)
(-0.0475345 0.239115 0.0154741)
(-0.0467203 0.257953 0.0136018)
(-0.0495424 0.238916 0.0156625)
(-0.050972 0.257246 0.0138103)
(-0.0486885 0.248217 0.011923)
(-0.044588 0.263097 0.0102135)
(-0.0490574 0.24802 0.0120646)
(-0.0454397 0.262725 0.0103934)
(-0.0493836 0.247898 0.0121669)
(-0.0461708 0.262482 0.0105196)