/*--------------------------------*- C++ -*----------------------------------*\
| =========                 |                                                 |
| \\      /  F ield         | OpenFOAM: The Open Source CFD Toolbox           |
|  \\    /   O peration     | Version:  2206                                  |
|   \\  /    A nd           | Website:  www.openfoam.com                      |
|    \\/     M anipulation  |                                                 |
\*---------------------------------------------------------------------------*/
FoamFile
{
    version     2.0;
    format      ascii;
    arch        "LSB;label=32;scalar=64";
    class       volVectorField;
    location    "500";
    object      Urel;
}
// * * * * * * * * * * * * * * * * * * * * * * * * * * * * * * * * * * * * * //

dimensions      [0 1 -1 0 0 0 0];

internalField   nonuniform List<vector> 
50904
(
(0.000483348 -0.000172601 1.16832e-05)
(0.000544691 4.09749e-06 1.26658e-05)
(0.000722093 -0.00098582 -1.10815e-05)
(0.000870393 -0.00079712 -1.10576e-05)
(0.00133384 -0.000644541 5.87219e-06)
(0.00155462 -9.74546e-05 9.13046e-06)
(0.00211271 -0.00314842 -2.37986e-05)
(0.00258969 -0.00255696 -2.35173e-05)
(0.00242123 -0.00134023 7.0938e-06)
(0.0028442 -0.000332744 1.35238e-05)
(0.00381523 -0.00576271 -5.44172e-05)
(0.00467522 -0.00466391 -5.43425e-05)
(0.00380576 -0.00235889 1.13451e-05)
(0.00448411 -0.000784926 2.17978e-05)
(0.00588777 -0.00889618 -0.0001057)
(0.00718371 -0.0071645 -0.000106299)
(0.00556447 -0.00384075 2.05986e-05)
(0.00656264 -0.00157193 3.58792e-05)
(0.00839343 -0.0126284 -0.000184723)
(0.0101772 -0.0101121 -0.000185887)
(0.00778845 -0.00597716 4.42144e-05)
(0.00918095 -0.00286341 6.45625e-05)
(0.0114073 -0.017062 -0.000301454)
(0.0137215 -0.013578 -0.000301893)
(0.0105989 -0.00904349 9.73266e-05)
(0.0124703 -0.00490021 0.000121866)
(0.0150315 -0.0223664 -0.00046445)
(0.0179137 -0.0176958 -0.000460541)
(0.0141338 -0.0134175 0.000227403)
(0.0165741 -0.00802139 0.000254286)
(0.0193795 -0.0287816 -0.000686908)
(0.0228554 -0.0226632 -0.000670781)
(0.0185035 -0.0195247 0.0005165)
(0.0215958 -0.0126293 0.000541299)
(0.0245498 -0.0365816 -0.000960999)
(0.028633 -0.0287316 -0.000917715)
(0.0237532 -0.0277561 0.0010349)
(0.0275351 -0.0190873 0.00104803)
(0.0306126 -0.0461442 -0.00121372)
(0.0352813 -0.0362323 -0.00111804)
(0.0299614 -0.0385919 0.00195115)
(0.0344418 -0.0278525 0.00193488)
(0.037645 -0.0579259 -0.00135024)
(0.04287 -0.0455918 -0.00117278)
(0.0372876 -0.0527077 0.0034515)
(0.0424697 -0.0395765 0.00338598)
(0.0458078 -0.0726384 -0.00118192)
(0.0515884 -0.0574932 -0.00090589)
(0.0456801 -0.0704245 0.00561317)
(0.0515179 -0.0545958 0.00545802)
(0.0550349 -0.0907664 -0.000500097)
(0.061343 -0.0723822 -0.000137722)
(0.0550353 -0.0918335 0.00828894)
(0.0614815 -0.0730863 0.00796759)
(0.0652285 -0.112683 0.000744268)
(0.0720602 -0.0906827 0.00112543)
(0.0648132 -0.116287 0.0111164)
(0.0718044 -0.0945116 0.0105216)
(0.075868 -0.138156 0.00219512)
(0.083314 -0.112297 0.00244591)
(0.0725523 -0.138285 0.0130574)
(0.0799528 -0.114138 0.0121457)
(0.0846101 -0.162183 0.00306593)
(0.0927627 -0.133134 0.00303671)
(0.0770849 -0.154436 0.0137985)
(0.0847725 -0.128903 0.0126524)
(0.0902252 -0.18115 0.0032044)
(0.0991642 -0.150058 0.0028327)
(0.078356 -0.16402 0.014)
(0.0862026 -0.138064 0.0127404)
(0.0926454 -0.194198 0.00296411)
(0.102442 -0.162247 0.00222952)
(0.0765041 -0.166536 0.0141411)
(0.0843589 -0.141026 0.0128993)
(0.0919221 -0.20078 0.00286025)
(0.102632 -0.169117 0.00178773)
(0.0718228 -0.1619 0.0136131)
(0.0795265 -0.137622 0.0126204)
(0.0880969 -0.200262 0.00261213)
(0.0997133 -0.170096 0.00133705)
(0.0645701 -0.150051 0.0128661)
(0.0719265 -0.127783 0.0122291)
(0.0812372 -0.191563 0.00270856)
(0.0936003 -0.164196 0.0013738)
(0.0550645 -0.131255 0.0113887)
(0.061774 -0.11177 0.0112275)
(0.0713068 -0.173513 0.00268572)
(0.0840099 -0.150205 0.00158527)
(0.0448569 -0.108818 0.00959971)
(0.0506301 -0.0924358 0.00982426)
(0.0598894 -0.148897 0.00261989)
(0.0722253 -0.130025 0.00201057)
(0.0359699 -0.0882114 0.00738925)
(0.0407499 -0.0746386 0.00780343)
(0.0492806 -0.12429 0.00219735)
(0.06067 -0.109213 0.00206907)
(0.028559 -0.0705046 0.00526809)
(0.0323984 -0.0594017 0.0057137)
(0.0399287 -0.101808 0.00159635)
(0.0500127 -0.0898472 0.00177512)
(0.0225282 -0.0558438 0.00355565)
(0.0255431 -0.0468669 0.00394457)
(0.0319799 -0.0823052 0.00104921)
(0.0406093 -0.0728626 0.001345)
(0.0176374 -0.0438334 0.00229948)
(0.0199601 -0.0366676 0.00260336)
(0.0253213 -0.0657339 0.000640793)
(0.0324926 -0.0583234 0.000932645)
(0.0136375 -0.033958 0.00143007)
(0.0153925 -0.0283325 0.00164885)
(0.0197297 -0.0516472 0.000368907)
(0.0255258 -0.0459131 0.00060344)
(0.010409 -0.0259671 0.000858035)
(0.0117142 -0.021622 0.00100729)
(0.0151281 -0.0399139 0.000205908)
(0.0196981 -0.0355464 0.000372353)
(0.00783091 -0.0195787 0.000497697)
(0.00878664 -0.0162788 0.000595188)
(0.0114145 -0.0303403 0.000114027)
(0.0149345 -0.0270596 0.000221936)
(0.00576669 -0.0144642 0.000277071)
(0.00645322 -0.0120145 0.00033843)
(0.00842274 -0.0225556 6.45981e-05)
(0.0110634 -0.0201407 0.000129185)
(0.00411424 -0.0103722 0.00014587)
(0.00459372 -0.00861026 0.000182943)
(0.00601959 -0.0162467 3.65382e-05)
(0.00793332 -0.0145218 7.20738e-05)
(0.00279638 -0.00711075 7.10466e-05)
(0.00311671 -0.00590064 9.23969e-05)
(0.00409963 -0.0111732 2.0677e-05)
(0.00542184 -0.00999441 3.82968e-05)
(0.00174151 -0.00450402 3.04599e-05)
(0.00193982 -0.00373703 4.17778e-05)
(0.00256335 -0.00708782 1.13329e-05)
(0.00340577 -0.00634508 1.87551e-05)
(0.000897082 -0.00241717 1.03554e-05)
(0.000999835 -0.00200717 1.54862e-05)
(0.00133213 -0.00379934 5.14706e-06)
(0.0017864 -0.00340408 7.48134e-06)
(0.000222076 -0.000752166 1.92667e-06)
(0.000250424 -0.000628425 3.38365e-06)
(0.000348204 -0.00116187 1.45972e-07)
(0.00049143 -0.00104516 4.96625e-07)
(0.000463644 -0.00039381 5.32334e-06)
(0.000559151 -0.00019799 2.35927e-06)
(0.00026469 -0.00043932 3.5643e-06)
(0.000332799 -0.000267846 7.26526e-07)
(0.000148866 -0.000373169 7.38431e-06)
(0.00017617 -0.000206832 4.76963e-06)
(9.28887e-05 -0.000401596 6.58618e-06)
(9.07028e-05 -0.000241411 3.72583e-06)
(5.72352e-05 -0.000420874 9.45896e-06)
(3.5806e-05 -0.00026339 5.80995e-06)
(3.43113e-05 -0.000443972 1.0458e-05)
(2.49004e-07 -0.000293014 5.93018e-06)
(1.73384e-05 -0.00046724 9.80345e-06)
(-2.62797e-05 -0.000321676 6.66897e-06)
(0.00137082 -0.00137414 -2.56833e-05)
(0.00168125 -0.00076119 -3.40156e-05)
(0.00075968 -0.00152259 -1.80266e-05)
(0.000978356 -0.000974269 -2.43214e-05)
(0.000414172 -0.00136896 -5.05512e-06)
(0.000508545 -0.00083432 -1.24886e-05)
(0.000242261 -0.00146071 8.25019e-06)
(0.00024765 -0.00094149 -9.53676e-07)
(0.000134788 -0.0015352 2.59038e-05)
(8.18443e-05 -0.0010258 1.44576e-05)
(6.39645e-05 -0.00161244 4.0238e-05)
(-2.87448e-05 -0.00111562 2.6905e-05)
(1.10063e-05 -0.00168682 5.00765e-05)
(-0.000112561 -0.00120039 3.80321e-05)
(0.00253657 -0.00272861 -0.0001033)
(0.00310673 -0.00159538 -0.000115169)
(0.00142837 -0.00302025 -6.6824e-05)
(0.00182632 -0.00198126 -7.61847e-05)
(0.000820081 -0.00283229 -2.05198e-05)
(0.000999431 -0.00181165 -3.66118e-05)
(0.000509502 -0.00300744 3.39609e-05)
(0.000533822 -0.00201057 1.14193e-05)
(0.000317215 -0.00315919 8.93738e-05)
(0.000239391 -0.0021773 6.10301e-05)
(0.000188749 -0.00330062 0.000134741)
(3.9617e-05 -0.00233636 0.000101817)
(9.17266e-05 -0.00343213 0.000168887)
(-0.000112967 -0.00248026 0.000135048)
(0.00403363 -0.00459683 -0.000258585)
(0.00491239 -0.00281531 -0.00027061)
(0.00233599 -0.00509896 -0.000157191)
(0.00294495 -0.00341672 -0.000168927)
(0.00143104 -0.00495283 -4.21802e-05)
(0.00171797 -0.00329081 -7.27892e-05)
(0.000957806 -0.0052425 9.31577e-05)
(0.00101789 -0.00360866 4.66712e-05)
(0.000665878 -0.00549258 0.000215358)
(0.00057528 -0.00387692 0.000156251)
(0.000468308 -0.00571023 0.000312006)
(0.00027145 -0.00411629 0.000243411)
(0.000317295 -0.00590292 0.000385306)
(3.73722e-05 -0.00432537 0.000311853)
(0.00595491 -0.00717148 -0.000521849)
(0.0071944 -0.00458265 -0.00052722)
(0.00357433 -0.00798949 -0.000300128)
(0.00442932 -0.0054715 -0.000313028)
(0.00233953 -0.00799242 -6.06929e-05)
(0.00276247 -0.00548273 -0.000113731)
(0.00167858 -0.00843673 0.000205994)
(0.00179829 -0.00595376 0.000120611)
(0.00127038 -0.00880923 0.000431271)
(0.00118733 -0.00634669 0.000321671)
(0.000991202 -0.00911618 0.000603615)
(0.000763929 -0.00667545 0.000476548)
(0.000775915 -0.00937609 0.000733041)
(0.000435271 -0.00695477 0.000595243)
(0.00841783 -0.0107045 -0.000921271)
(0.0100718 -0.00711398 -0.000907737)
(0.00526961 -0.0120098 -0.000500365)
(0.00640994 -0.00840143 -0.000513138)
(0.00367383 -0.0122941 -5.26415e-05)
(0.00426891 -0.00866734 -0.000139104)
(0.00280018 -0.0129442 0.00040772)
(0.00301283 -0.00933487 0.000262664)
(0.00225843 -0.0134672 0.000778613)
(0.00221339 -0.00987465 0.000591252)
(0.00188494 -0.0138786 0.00105544)
(0.001655 -0.0103059 0.000838362)
(0.00159502 -0.0142148 0.00126076)
(0.0012192 -0.0106635 0.00102421)
(0.0115729 -0.0155391 -0.00147544)
(0.0136957 -0.0107002 -0.00142298)
(0.00758888 -0.017585 -0.000747491)
(0.00905967 -0.0125626 -0.00075933)
(0.00560481 -0.0183072 2.32329e-05)
(0.00641601 -0.0132163 -0.000111693)
(0.00449415 -0.0192275 0.000752592)
(0.00484172 -0.0141319 0.000520685)
(0.00380192 -0.0199313 0.00131708)
(0.00383402 -0.0148429 0.00101673)
(0.00332178 -0.0204642 0.00172963)
(0.00312568 -0.0153919 0.00138195)
(0.0029472 -0.0208858 0.00203225)
(0.00257043 -0.0158339 0.00165251)
(0.0155911 -0.0221134 -0.00216324)
(0.0182345 -0.0157185 -0.00204105)
(0.0107343 -0.025263 -0.000987548)
(0.0125894 -0.0184125 -0.00100112)
(0.0083412 -0.0266058 0.000253891)
(0.00942248 -0.0196147 4.79444e-05)
(0.00697208 -0.0278707 0.0013442)
(0.00750521 -0.0208369 0.000988338)
(0.00611291 -0.0287922 0.00215673)
(0.00626877 -0.0217479 0.00169733)
(0.00551416 -0.0294642 0.00273711)
(0.00539492 -0.0224281 0.0022073)
(0.00504576 -0.0299806 0.00315656)
(0.00470795 -0.022963 0.00257842)
(0.0206578 -0.0309124 -0.00289186)
(0.023867 -0.0225863 -0.00266256)
(0.0149457 -0.0356214 -0.00109667)
(0.0172486 -0.0264436 -0.00112596)
(0.0121345 -0.0377871 0.00077681)
(0.0135508 -0.0283614 0.000460279)
(0.0104901 -0.0394813 0.00232855)
(0.0112688 -0.0299577 0.00179193)
(0.00945091 -0.0406594 0.00344828)
(0.00978462 -0.0310998 0.00276212)
(0.00872466 -0.0414943 0.00423129)
(0.00873097 -0.0319269 0.0034449)
(0.00815584 -0.0421162 0.0047869)
(0.00790154 -0.0325601 0.00393159)
(0.0269084 -0.0423976 -0.00349716)
(0.0306898 -0.0316806 -0.00311926)
(0.0204322 -0.049195 -0.000860332)
(0.0232313 -0.0370957 -0.000929351)
(0.01721 -0.0523771 0.00178154)
(0.0190125 -0.0398969 0.00130659)
(0.0152788 -0.0545696 0.00387272)
(0.016348 -0.0419275 0.00309471)
(0.0140468 -0.0560215 0.00533744)
(0.0145958 -0.0433108 0.00435662)
(0.0131838 -0.0570199 0.00633878)
(0.013347 -0.0442846 0.00522368)
(0.0125083 -0.0577398 0.00703422)
(0.0123643 -0.0450096 0.00582693)
(0.0344432 -0.0570064 -0.00369537)
(0.038788 -0.0433674 -0.00315573)
(0.027314 -0.0663447 6.89866e-05)
(0.0306424 -0.0506887 -0.000108071)
(0.0236821 -0.0706565 0.0035998)
(0.0258965 -0.0544823 0.00287618)
(0.0214526 -0.0733852 0.00628822)
(0.0228215 -0.0569839 0.00517222)
(0.020018 -0.0751182 0.00811912)
(0.0207777 -0.0586196 0.0067466)
(0.0190132 -0.0762767 0.00933941)
(0.0193189 -0.0597374 0.00780046)
(0.0182298 -0.0770845 0.0101631)
(0.0181758 -0.0605472 0.00851157)
(0.0433739 -0.0751861 -0.00317608)
(0.0482902 -0.0580784 -0.00249701)
(0.0356458 -0.0872353 0.00199337)
(0.0395533 -0.0674515 0.0016127)
(0.0315623 -0.0926143 0.00641877)
(0.0342252 -0.0722113 0.0053506)
(0.0289946 -0.0957981 0.0096671)
(0.030679 -0.0751345 0.00812783)
(0.0273305 -0.0977381 0.0118198)
(0.0283006 -0.0769662 0.00998143)
(0.0261693 -0.0989964 0.0132164)
(0.026607 -0.0781828 0.0111889)
(0.0252718 -0.0998415 0.0141287)
(0.0252922 -0.0790375 0.0119761)
(0.0534825 -0.0969911 -0.00164365)
(0.0589369 -0.0758347 -0.000929883)
(0.045102 -0.111488 0.00518638)
(0.0495971 -0.087112 0.00443022)
(0.0404624 -0.117631 0.0103886)
(0.0435638 -0.0926433 0.00883323)
(0.03749 -0.121063 0.0140467)
(0.0394571 -0.0958547 0.0119815)
(0.0355619 -0.123073 0.0163969)
(0.0366942 -0.0977913 0.0140241)
(0.0342307 -0.124342 0.0178743)
(0.034745 -0.0990439 0.0153155)
(0.0332187 -0.125158 0.0188024)
(0.0332572 -0.099895 0.0161251)
(0.0644031 -0.121919 0.000769117)
(0.0703916 -0.0963774 0.00137307)
(0.0552805 -0.137949 0.00911415)
(0.0603497 -0.109005 0.00789195)
(0.04984 -0.144472 0.0148434)
(0.0533532 -0.115063 0.0127555)
(0.0463191 -0.147929 0.0186836)
(0.0485273 -0.118421 0.0160893)
(0.0440503 -0.149862 0.0210682)
(0.045295 -0.120364 0.0181879)
(0.0425123 -0.151038 0.0225167)
(0.0430513 -0.121576 0.0194745)
(0.0413812 -0.151782 0.0233844)
(0.0413873 -0.122395 0.0202464)
(0.0753749 -0.149148 0.00356019)
(0.0820048 -0.119113 0.00385303)
(0.0653723 -0.165225 0.0125365)
(0.0710666 -0.132139 0.0109041)
(0.0588439 -0.171658 0.0183733)
(0.062794 -0.138424 0.0158922)
(0.0546192 -0.174885 0.0221037)
(0.057072 -0.141779 0.0191773)
(0.051942 -0.176611 0.0243383)
(0.0532905 -0.143654 0.0211832)
(0.0501769 -0.177622 0.0256478)
(0.0507271 -0.14479 0.0223749)
(0.0489245 -0.17823 0.0263996)
(0.0488832 -0.145527 0.0230638)
(0.0839915 -0.173602 0.00542395)
(0.0914096 -0.140034 0.00528594)
(0.0732067 -0.188773 0.014087)
(0.0795928 -0.152869 0.0121684)
(0.0656859 -0.194809 0.0196182)
(0.0701247 -0.15918 0.0169613)
(0.0608659 -0.197703 0.0230226)
(0.0636184 -0.162468 0.0200332)
(0.0578729 -0.199188 0.025006)
(0.0593914 -0.164256 0.0218715)
(0.0559559 -0.200031 0.0261381)
(0.0565974 -0.16531 0.0229415)
(0.0546448 -0.200513 0.0267699)
(0.0546494 -0.165967 0.023547)
(0.0893401 -0.192586 0.00588059)
(0.0976784 -0.156898 0.00533874)
(0.0781943 -0.206666 0.0136656)
(0.0853276 -0.169443 0.0116318)
(0.0700235 -0.21222 0.0187037)
(0.0749958 -0.175687 0.0160797)
(0.0648465 -0.21478 0.0217358)
(0.0679575 -0.178878 0.0188871)
(0.0616911 -0.21605 0.0234719)
(0.0634579 -0.180575 0.0205466)
(0.0597209 -0.216755 0.0244477)
(0.0605511 -0.18156 0.0215009)
(0.0584183 -0.217144 0.0249848)
(0.058582 -0.182153 0.022036)
(0.0916309 -0.20589 0.00539879)
(0.100981 -0.169487 0.00448444)
(0.080654 -0.219091 0.0119192)
(0.0885579 -0.181938 0.00987859)
(0.0722747 -0.224229 0.0163659)
(0.0778068 -0.188118 0.0139088)
(0.0670157 -0.226528 0.0190574)
(0.0705419 -0.191228 0.0164781)
(0.0638575 -0.227642 0.020601)
(0.0659592 -0.192855 0.0180028)
(0.0619254 -0.228249 0.0214691)
(0.0630538 -0.19379 0.018881)
(0.0606851 -0.228588 0.0219475)
(0.0611343 -0.19434 0.019375)
(0.0909665 -0.213105 0.00480231)
(0.101361 -0.177442 0.00351269)
(0.080612 -0.225923 0.00989044)
(0.0892686 -0.190191 0.007819)
(0.0725852 -0.230729 0.0135165)
(0.0786963 -0.196281 0.0112092)
(0.0675824 -0.23282 0.0157874)
(0.0716062 -0.199275 0.0134428)
(0.064599 -0.233813 0.0171199)
(0.0671656 -0.20082 0.0147963)
(0.0627879 -0.234349 0.0178811)
(0.0643713 -0.201697 0.015588)
(0.0616409 -0.234661 0.0183048)
(0.0625452 -0.202226 0.0160391)
(0.0873753 -0.213288 0.0046986)
(0.0987508 -0.179923 0.00309535)
(0.0780859 -0.226281 0.00833401)
(0.0874291 -0.193393 0.00624001)
(0.0708869 -0.230956 0.0109668)
(0.0775775 -0.199466 0.00880783)
(0.0664063 -0.232934 0.0126812)
(0.0709989 -0.202369 0.0105625)
(0.0637313 -0.233859 0.0137217)
(0.0668813 -0.203847 0.011657)
(0.062104 -0.234353 0.0143354)
(0.064286 -0.204685 0.0123158)
(0.0610703 -0.234643 0.0146907)
(0.0625837 -0.205188 0.0127059)
(0.0808725 -0.205081 0.00557997)
(0.0930552 -0.175584 0.00379498)
(0.0730809 -0.218557 0.00793013)
(0.0830398 -0.190024 0.00582727)
(0.066965 -0.223361 0.009446)
(0.0742697 -0.196279 0.00740498)
(0.0631397 -0.225366 0.0104635)
(0.0684057 -0.199201 0.00852897)
(0.0608454 -0.226292 0.0111081)
(0.0647252 -0.200669 0.00925918)
(0.0594442 -0.226786 0.0115033)
(0.0623969 -0.201498 0.00971455)
(0.0585508 -0.227075 0.0117417)
(0.0608618 -0.201994 0.00999507)
(0.0713003 -0.18676 0.00752862)
(0.0839512 -0.162537 0.00585789)
(0.0651058 -0.200438 0.00913855)
(0.0755287 -0.177747 0.00716087)
(0.0601455 -0.205465 0.00953497)
(0.0680252 -0.184314 0.00766828)
(0.0570285 -0.207576 0.00969495)
(0.0629915 -0.187351 0.00796618)
(0.0551579 -0.208534 0.00979923)
(0.0598346 -0.188849 0.00816903)
(0.0540198 -0.209024 0.00987578)
(0.0578461 -0.189671 0.00830846)
(0.0533169 -0.209366 0.00992658)
(0.0565567 -0.190202 0.00840077)
(0.0598884 -0.15994 0.00906753)
(0.072382 -0.141312 0.0079272)
(0.0548639 -0.172353 0.0110238)
(0.0653465 -0.155944 0.00946964)
(0.0508553 -0.177162 0.0108498)
(0.0590279 -0.162459 0.00934221)
(0.0483612 -0.17926 0.0103023)
(0.0548073 -0.165535 0.00890285)
(0.0468807 -0.180216 0.00987188)
(0.052182 -0.167044 0.00855532)
(0.0459963 -0.180698 0.00959168)
(0.0505528 -0.167857 0.00832746)
(0.0454691 -0.181032 0.00941308)
(0.0495226 -0.168378 0.00818113)
(0.0491168 -0.132116 0.00898485)
(0.0608928 -0.118041 0.00849587)
(0.0446651 -0.141577 0.0118108)
(0.0547414 -0.130285 0.0108912)
(0.0412488 -0.145326 0.0118116)
(0.0492933 -0.135917 0.0108521)
(0.0391882 -0.147063 0.0109825)
(0.0457194 -0.1387 0.0100606)
(0.0379895 -0.147867 0.0102366)
(0.0435262 -0.140082 0.00935116)
(0.0372894 -0.148271 0.00971519)
(0.0421867 -0.140822 0.00885221)
(0.0368838 -0.14854 0.00937154)
(0.0413571 -0.141284 0.00852008)
(0.0396136 -0.106661 0.00759925)
(0.0502812 -0.0960469 0.00760875)
(0.0354195 -0.112422 0.0109639)
(0.0447155 -0.104849 0.0106582)
(0.0323392 -0.114442 0.0115121)
(0.0398722 -0.10882 0.0111475)
(0.0305613 -0.115473 0.0107515)
(0.0367855 -0.110921 0.0103753)
(0.0295548 -0.115953 0.00991876)
(0.0349254 -0.111985 0.00953579)
(0.0289809 -0.116192 0.00929657)
(0.0338086 -0.112557 0.00890479)
(0.0286563 -0.11635 0.00887457)
(0.0331291 -0.112907 0.00847226)
(0.0315999 -0.0850421 0.00572271)
(0.0409376 -0.0770011 0.00598698)
(0.0276129 -0.0874626 0.00899797)
(0.0358813 -0.0824002 0.00910124)
(0.0247451 -0.0875852 0.010044)
(0.0314914 -0.0843704 0.0101251)
(0.0231592 -0.0877511 0.00952149)
(0.0287772 -0.0855477 0.00957679)
(0.0222865 -0.087817 0.00876001)
(0.0271754 -0.0861632 0.00878298)
(0.0218007 -0.0878427 0.0081489)
(0.0262306 -0.0864999 0.00814102)
(0.0215313 -0.0878729 0.00772271)
(0.0256652 -0.0867097 0.00768818)
(0.0249563 -0.0671966 0.00395838)
(0.0328834 -0.0610855 0.00428705)
(0.0212736 -0.0672502 0.00669984)
(0.0283952 -0.0638393 0.00698136)
(0.0186034 -0.0657755 0.00797758)
(0.0244257 -0.0639848 0.00828855)
(0.0171711 -0.0651379 0.00771684)
(0.0220286 -0.0642288 0.00801841)
(0.0164028 -0.0648088 0.0071018)
(0.0206416 -0.0643771 0.00737114)
(0.0159844 -0.0646326 0.00656592)
(0.0198374 -0.064469 0.00680039)
(0.0157558 -0.0645436 0.00618147)
(0.0193627 -0.0645353 0.00638508)
(0.0194277 -0.0524281 0.00254867)
(0.0259627 -0.0478382 0.0028425)
(0.0161831 -0.0511568 0.00459124)
(0.0221429 -0.0489032 0.00490108)
(0.0137567 -0.0486196 0.00582627)
(0.0186312 -0.0477103 0.00619985)
(0.0124726 -0.0473716 0.00577744)
(0.0165349 -0.047178 0.00616292)
(0.011799 -0.0467384 0.00532743)
(0.0153429 -0.046931 0.00568799)
(0.0114395 -0.0464075 0.0048928)
(0.0146627 -0.0468163 0.00522015)
(0.0112461 -0.0462329 0.0045712)
(0.0142671 -0.0467668 0.00486808)
(0.0149007 -0.0403597 0.00154808)
(0.0201453 -0.0369607 0.0017711)
(0.0121767 -0.0385693 0.00293563)
(0.0170269 -0.0371152 0.00319658)
(0.0100468 -0.0355466 0.00394927)
(0.0140139 -0.0351573 0.00428478)
(0.00891738 -0.0339366 0.00403337)
(0.0122135 -0.0340935 0.00439793)
(0.00833353 -0.0331178 0.00373644)
(0.0112038 -0.0335668 0.00408868)
(0.00802882 -0.0326949 0.00340734)
(0.0106359 -0.0333062 0.0037345)
(0.00786705 -0.0324727 0.0031541)
(0.0103099 -0.033176 0.00345625)
(0.0112529 -0.0306284 0.000894766)
(0.0153511 -0.0281372 0.00104596)
(0.00905816 -0.0288092 0.00176913)
(0.0128913 -0.0278835 0.00195609)
(0.0072611 -0.0257714 0.0025034)
(0.0103925 -0.0256582 0.00275625)
(0.00629203 -0.0240363 0.00264158)
(0.00888266 -0.0243135 0.00292945)
(0.00579571 -0.0231417 0.00246825)
(0.00804215 -0.0236232 0.00275334)
(0.00554092 -0.0226863 0.00223423)
(0.00757734 -0.0232807 0.00250125)
(0.00540799 -0.0224488 0.00204442)
(0.00731351 -0.0231062 0.00229142)
(0.00831576 -0.0227613 0.0004901)
(0.011426 -0.0209693 0.000583819)
(0.00661939 -0.0211665 0.00100152)
(0.00955596 -0.0205979 0.00112115)
(0.00516881 -0.0184316 0.00147981)
(0.00756446 -0.0184658 0.00164874)
(0.00436605 -0.0167669 0.00161594)
(0.00633772 -0.0170649 0.0018167)
(0.00395573 -0.0158889 0.00153331)
(0.00565708 -0.0163194 0.0017373)
(0.00374752 -0.0154468 0.00138155)
(0.00528475 -0.0159489 0.00157394)
(0.00364116 -0.015218 0.00124874)
(0.00507642 -0.0157615 0.00142626)
(0.00595148 -0.0163977 0.000250531)
(0.00822816 -0.0151451 0.000303629)
(0.00470162 -0.0151267 0.000524585)
(0.00686795 -0.0147924 0.000592857)
(0.0035888 -0.012871 0.0008048)
(0.00535335 -0.0129686 0.000905017)
(0.00295593 -0.0114186 0.000908893)
(0.00440046 -0.0116849 0.00103307)
(0.00262687 -0.0106276 0.0008827)
(0.00386701 -0.0109697 0.00101316)
(0.00246283 -0.0102272 0.000797098)
(0.00357878 -0.0106119 0.000921931)
(0.00237976 -0.0100243 0.000713049)
(0.00341968 -0.0104328 0.000828148)
(0.0040598 -0.0112777 0.000115913)
(0.00564373 -0.0104369 0.000142914)
(0.00319194 -0.0103405 0.000246279)
(0.00470696 -0.0101508 0.000280043)
(0.00238992 -0.008628 0.000391069)
(0.00362328 -0.00873469 0.000442305)
(0.00192105 -0.00747436 0.000455799)
(0.00292638 -0.00768284 0.000521873)
(0.00167282 -0.00681739 0.000456321)
(0.00252972 -0.00706398 0.000528865)
(0.0015472 -0.00648051 0.000418403)
(0.00231586 -0.00674584 0.000490024)
(0.00148497 -0.00630988 0.000374357)
(0.00219957 -0.00658749 0.000441033)
(0.00254178 -0.00715165 4.5094e-05)
(0.00355715 -0.00662954 5.68074e-05)
(0.00199582 -0.00652135 9.5745e-05)
(0.00297046 -0.00642439 0.00010933)
(0.00147112 -0.00535169 0.00015781)
(0.00226313 -0.00544236 0.000179038)
(0.00115715 -0.00453341 0.000189453)
(0.00179912 -0.0046814 0.000217893)
(0.000985251 -0.00404765 0.000196404)
(0.00153075 -0.0042084 0.00022936)
(0.000896293 -0.00378733 0.000186558)
(0.00138253 -0.00395405 0.00022109)
(0.000852506 -0.00365333 0.000172231)
(0.00130266 -0.00382287 0.000205692)
(0.00132356 -0.00382412 1.22245e-05)
(0.00187396 -0.00355347 1.60789e-05)
(0.00104555 -0.00346534 2.4975e-05)
(0.00157396 -0.00342811 2.87044e-05)
(0.000760792 -0.00279831 4.39497e-05)
(0.00119159 -0.00286197 4.99535e-05)
(0.000587092 -0.00231922 5.44754e-05)
(0.000934845 -0.00241023 6.28934e-05)
(0.000487732 -0.00202196 5.8675e-05)
(0.000781995 -0.00211668 6.91586e-05)
(0.000434553 -0.00185325 5.93439e-05)
(0.000695524 -0.00194632 7.1551e-05)
(0.000406749 -0.00175933 6.0932e-05)
(0.000647619 -0.00184886 7.40433e-05)
(0.000349895 -0.0011536 4.13718e-07)
(0.000523399 -0.00107935 9.83176e-07)
(0.000289954 -0.00102368 6.91444e-07)
(0.000456848 -0.00102492 9.19921e-07)
(0.000209988 -0.000801391 2.72335e-06)
(0.000345283 -0.000835568 3.18107e-06)
(0.000158022 -0.00063896 3.63988e-06)
(0.00026826 -0.000680937 4.38917e-06)
(0.000126959 -0.000534862 3.88386e-06)
(0.000219688 -0.000575689 5.01292e-06)
(0.000109437 -0.000471004 4.01151e-06)
(0.000191853 -0.000510705 5.57777e-06)
(9.80399e-05 -0.000427734 7.90425e-06)
(0.000173339 -0.000462597 1.0296e-05)
(3.74298e-06 -0.00049738 7.32986e-06)
(-4.96359e-05 -0.000350874 7.12676e-06)
(-5.6602e-06 -0.000533899 5.04389e-06)
(-6.8003e-05 -0.000383161 6.89754e-06)
(-1.32641e-05 -0.000566619 5.05719e-06)
(-8.26697e-05 -0.000410677 7.41161e-06)
(-2.40501e-05 -0.000598232 6.61478e-06)
(-0.0001007 -0.00044068 8.7145e-06)
(-4.51761e-05 -0.000642179 7.59383e-06)
(-0.000133149 -0.000484763 9.70098e-06)
(-0.000103111 -0.000719812 6.08613e-06)
(-0.000218147 -0.000569707 9.60319e-06)
(-3.42095e-05 -0.00177201 5.64671e-05)
(-0.000187438 -0.00128461 4.81269e-05)
(-6.98487e-05 -0.00186264 5.99598e-05)
(-0.000249451 -0.00136996 5.52983e-05)
(-9.99035e-05 -0.00194143 6.22535e-05)
(-0.000300273 -0.00144151 5.9814e-05)
(-0.000138538 -0.00202611 6.32935e-05)
(-0.000361453 -0.00152255 6.2462e-05)
(-0.000209383 -0.00215713 5.92215e-05)
(-0.000468717 -0.00165067 6.07136e-05)
(-0.000395505 -0.00240777 4.35322e-05)
(-0.000741907 -0.00191958 5.08231e-05)
(5.9589e-06 -0.0035704 0.000195165)
(-0.000250895 -0.00262153 0.000163718)
(-6.46993e-05 -0.00371315 0.000211215)
(-0.000367339 -0.00275994 0.000183642)
(-0.000125092 -0.00383305 0.000218524)
(-0.000463706 -0.00287355 0.000194302)
(-0.000201062 -0.00396781 0.000218652)
(-0.000580121 -0.00300263 0.000198344)
(-0.000337503 -0.00418293 0.00020408)
(-0.000782578 -0.0032158 0.000190543)
(-0.000684183 -0.00462857 0.000159357)
(-0.00128865 -0.00368967 0.000158931)
(0.000181536 -0.00609628 0.000443558)
(-0.000175846 -0.00452369 0.000369302)
(6.69794e-05 -0.0062902 0.000481046)
(-0.000358104 -0.00471519 0.000409063)
(-3.1835e-05 -0.00645122 0.00049948)
(-0.0005103 -0.00487285 0.000430518)
(-0.000155624 -0.00663208 0.000503821)
(-0.000694734 -0.00504999 0.000439888)
(-0.000376035 -0.00692632 0.000482791)
(-0.00101516 -0.00534422 0.000429698)
(-0.000924203 -0.00757697 0.000403714)
(-0.00180738 -0.00603303 0.000373147)
(0.000580113 -0.00962757 0.000836821)
(0.000134213 -0.00721414 0.000693291)
(0.000412286 -0.00987471 0.00090598)
(-0.000125436 -0.00746175 0.000761382)
(0.00026667 -0.0100769 0.000942631)
(-0.000344043 -0.0076625 0.000799072)
(8.38846e-05 -0.0103029 0.000957977)
(-0.000610074 -0.0078877 0.000818558)
(-0.000240663 -0.0106733 0.000939912)
(-0.00107343 -0.00826202 0.000812537)
(-0.00103881 -0.0115249 0.000838796)
(-0.00221244 -0.00916475 0.000741482)
(0.00132902 -0.0145294 0.00142589)
(0.000817844 -0.010987 0.00117622)
(0.00109875 -0.0148338 0.00153846)
(0.000469333 -0.0112947 0.00128227)
(0.000897561 -0.0150802 0.00160142)
(0.000173639 -0.0115406 0.0013424)
(0.000644405 -0.0153523 0.00163527)
(-0.000188463 -0.0118139 0.00137723)
(0.000194565 -0.0157969 0.00163157)
(-0.000820999 -0.0122683 0.00138276)
(-0.000907297 -0.0168386 0.00153785)
(-0.00237298 -0.0133769 0.00131899)
(0.00260158 -0.0212707 0.00227555)
(0.00205707 -0.0162266 0.00187182)
(0.00230001 -0.0216385 0.00244405)
(0.00160852 -0.0165985 0.00202535)
(0.00203477 -0.0219311 0.00254176)
(0.00122496 -0.0168916 0.00211383)
(0.00169987 -0.0222515 0.00260181)
(0.000752005 -0.017214 0.00216871)
(0.00110337 -0.0227724 0.00262443)
(-7.70791e-05 -0.0177486 0.00219251)
(-0.000357324 -0.0239963 0.00257561)
(-0.00211182 -0.0190534 0.00216041)
(0.00461201 -0.0304401 0.00349143)
(0.00407097 -0.0234271 0.00287516)
(0.00423104 -0.0308776 0.00372466)
(0.00351129 -0.0238665 0.00308209)
(0.00389385 -0.0312218 0.00386211)
(0.00302866 -0.0242099 0.00320122)
(0.00346639 -0.0315918 0.00395197)
(0.00242977 -0.0245828 0.00327628)
(0.00270301 -0.0321906 0.00400615)
(0.00137524 -0.025197 0.00331722)
(0.000831281 -0.0335897 0.00402864)
(-0.0012149 -0.0266856 0.00332624)
(0.00762807 -0.0426576 0.00522474)
(0.00713119 -0.0330989 0.0043138)
(0.00716161 -0.0431692 0.00552751)
(0.00645059 -0.0336081 0.00457657)
(0.00674577 -0.0435653 0.0057037)
(0.00585872 -0.034 0.00472379)
(0.00621575 -0.0439832 0.00581674)
(0.00511859 -0.0344195 0.00481087)
(0.00526629 -0.0446533 0.00588854)
(0.00380954 -0.0351036 0.00485165)
(0.00293563 -0.0462016 0.0059698)
(0.000590671 -0.0367498 0.0048747)
(0.0118821 -0.0583557 0.0075743)
(0.011452 -0.0456125 0.00629104)
(0.0113247 -0.058935 0.00794277)
(0.0106409 -0.0461849 0.00660347)
(0.0108252 -0.0593774 0.00815254)
(0.00993042 -0.0466197 0.00677166)
(0.0101857 -0.0598377 0.00828066)
(0.00903635 -0.0470781 0.00686024)
(0.00903739 -0.0605698 0.00835343)
(0.00744844 -0.0478228 0.00688011)
(0.0062174 -0.062248 0.00844914)
(0.00354 -0.0495978 0.00686246)
(0.0175052 -0.07776 0.0107881)
(0.0171168 -0.061203 0.00904304)
(0.0168554 -0.0783958 0.0112024)
(0.0161693 -0.0618272 0.00938777)
(0.0162702 -0.0788722 0.0114242)
(0.0153345 -0.0622944 0.00955782)
(0.0155181 -0.0793585 0.0115366)
(0.0142785 -0.0627784 0.00962008)
(0.0141647 -0.080122 0.0115539)
(0.0123957 -0.0635555 0.00956705)
(0.0108421 -0.0818526 0.011539)
(0.00775602 -0.0653913 0.00938936)
(0.0244479 -0.100538 0.0148033)
(0.0240824 -0.0797123 0.0125459)
(0.023704 -0.101193 0.0152342)
(0.0229942 -0.08036 0.0128988)
(0.023033 -0.101678 0.0154454)
(0.0220328 -0.0808384 0.0130519)
(0.0221696 -0.10216 0.0155172)
(0.020813 -0.0813237 0.0130669)
(0.0206153 -0.102912 0.0154365)
(0.0186332 -0.0820986 0.0129045)
(0.0168075 -0.104599 0.0151907)
(0.0132579 -0.0839169 0.0124617)
(0.0323017 -0.125824 0.0194691)
(0.031904 -0.100553 0.0166914)
(0.0314678 -0.126455 0.019873)
(0.0306803 -0.101191 0.017021)
(0.0307174 -0.126916 0.0200438)
(0.0296004 -0.101656 0.0171366)
(0.0297538 -0.127361 0.0200477)
(0.0282306 -0.102119 0.0170863)
(0.028021 -0.128047 0.0198295)
(0.0257808 -0.102852 0.016789)
(0.0237929 -0.129569 0.0192462)
(0.0197393 -0.104558 0.0160072)
(0.0403614 -0.152321 0.0239681)
(0.0398855 -0.122964 0.0207512)
(0.039455 -0.152901 0.0243109)
(0.0385489 -0.123574 0.0210353)
(0.0386381 -0.153304 0.0244285)
(0.0373693 -0.124005 0.0211099)
(0.0375922 -0.153676 0.0243618)
(0.0358761 -0.124422 0.0210033)
(0.0357184 -0.154244 0.0240117)
(0.0332088 -0.125082 0.0205976)
(0.0311929 -0.155469 0.0230937)
(0.026663 -0.12659 0.0195298)
(0.0478365 -0.178647 0.0268818)
(0.04727 -0.146021 0.0234971)
(0.0468792 -0.179135 0.027147)
(0.0458494 -0.146579 0.0237298)
(0.0460187 -0.179464 0.0272155)
(0.0445992 -0.146968 0.0237745)
(0.0449234 -0.179754 0.0271082)
(0.0430237 -0.147339 0.0236454)
(0.0429727 -0.180192 0.0267044)
(0.0402192 -0.147926 0.0232122)
(0.0383552 -0.1811 0.0256515)
(0.0334247 -0.149235 0.0220679)
(0.0535435 -0.200836 0.0271611)
(0.052993 -0.166405 0.0239219)
(0.0525761 -0.201236 0.0273675)
(0.0515399 -0.166915 0.0241229)
(0.0517091 -0.201503 0.0274124)
(0.0502651 -0.167272 0.0241628)
(0.0506108 -0.201726 0.0273083)
(0.0486657 -0.167605 0.0240534)
(0.0486659 -0.202058 0.0269433)
(0.0458296 -0.168137 0.0236803)
(0.0441686 -0.202718 0.0259943)
(0.0390671 -0.169291 0.022688)
(0.0573471 -0.217397 0.0253131)