/*--------------------------------*- C++ -*----------------------------------*\
| =========                 |                                                 |
| \\      /  F ield         | OpenFOAM: The Open Source CFD Toolbox           |
|  \\    /   O peration     | Version:  2206                                  |
|   \\  /    A nd           | Website:  www.openfoam.com                      |
|    \\/     M anipulation  |                                                 |
\*---------------------------------------------------------------------------*/
FoamFile
{
    version     2.0;
    format      ascii;
    arch        "LSB;label=32;scalar=64";
    class       volScalarField;
    location    "1";
    object      p;
}
// * * * * * * * * * * * * * * * * * * * * * * * * * * * * * * * * * * * * * //

dimensions      [0 2 -2 0 0 0 0];

internalField   nonuniform List<scalar> 
918
(
1.78042
0.757155
0.243008
1.79874
0.0403094
0.71081
-0.245651
1.28443
1.82825
0.274263
0.236595
1.50982
0.467746
0.344909
-0.262192
0.125111
1.51923
-0.399569
1.59496
0.155612
0.0950097
1.91046
1.7109
1.5951
1.4866
0.10222
0.487124
0.114458
-0.0699907
-0.00880223
0.0870297
0.113629
0.060054
0.484714
0.642154
0.728927
1.5479
0.985266
0.0417438
-0.0404718
-0.122839
-0.380044
1.32211
1.35195
0.619165
1.23017
1.16184
1.60788
1.77779
1.83667
1.73334
1.7822
1.89551
0.590627
0.281843
0.226176
0.304641
0.288559
0.347511
0.252591
0.249881
0.265646
0.259729
1.44097
1.51249
1.51341
1.51719
1.50565
0.70287
0.674425
0.732769
0.461592
0.522364
0.422985
0.503695
0.356765
0.36832
0.368743
0.370723
-0.314766
-0.71516
0.0609304
0.0788134
-0.00810806
0.14484
0.144266
1.51457
1.52571
1.49102
1.48334
1.04015
-0.196305
-0.427663
1.61148
1.63364
1.86665
1.74658
1.75558
1.67763
0.167717
0.158111
0.140232
0.171257
0.174794
0.408828
0.639014
1.60318
1.64543
1.49867
1.52394
1.52232
1.23149
1.55685
1.54237
0.281318
0.394881
0.171334
0.241218
0.440318
0.382085
0.501456
0.496317
-0.0566188
0.0074964
0.137212
0.0738367
0.125914
1.54734
1.52368
1.56606
1.55612
1.58325
0.878928
0.820944
1.04584
1.12652
0.270005
0.20517
-0.262954
-0.247698
-0.467287
1.23567
1.38764
1.41564
0.452699
0.632266
0.41436
0.720699
0.699015
1.58314
1.6155
1.58931
1.64094
1.63207
1.65017
1.7887
1.77755
1.85985
0.638398
0.69793
0.569326
0.526628
-0.0289686
0.116267
-0.0181464
0.270061
0.302678
0.37468
0.377878
0.345251
0.30783
0.29064
0.272161
0.288129
0.222223
0.202567
1.42444
1.41202
1.46613
1.481
1.53785
1.53028
1.52753
1.53916
0.495961
0.530446
0.471391
0.428842
-1.18944
-3.15324
0.117981
0.198762
0.0156048
-0.00735041
0.00524189
0.0461879
0.0101314
0.00635708
0.22328
0.188119
0.158836
0.207316
1.52949
1.54718
1.02096
1.08344
0.953958
0.94669
1.60219
1.61808
1.63564
1.62461
0.194455
0.190716
0.201058
1.09001
0.873294
0.971548
1.18108
1.09904
1.29248
1.32015
1.53926
1.52998
1.55358
0.241859
0.321901
0.695995
0.510813
0.633268
0.549467
0.512238
0.524474
0.45308
1.4895
1.51248
1.51323
1.58343
1.58046
1.59429
1.54476
1.55647
1.54673
0.652277
0.475994
1.24629
1.18335
1.12754
1.19468
1.2289
1.24821
1.46215
1.42561
1.45252
0.899786
0.873308
0.460805
0.444287
1.35541
1.39758
1.37512
0.472371
0.369042
0.49921
0.468939
0.412439
0.469711
0.364058
0.0356696
0.125024
0.26295
0.239567
0.212347
0.27947
0.269007
0.264948
1.08497
1.1418
0.733679
0.849157
0.833253
0.223493
0.277942
0.359452
0.283862
0.310481
0.405326
0.36479
1.20807
1.21242
1.24526
1.17702
1.21137
1.07268
0.939584
0.928969
0.392865
0.42125
0.401752
1.12007
1.15958
1.1634
1.62799
1.69274
-0.0485308
0.0653074
1.76351
1.79712
-0.0273026
0.0244186
0.246077
0.291749
0.963271
1.64405
1.63621
1.7216
0.276561
0.552179
0.245988
0.332283
0.290383
1.50054
1.46236
1.39581
0.000419325
0.17261
0.171249
0.141341
1.69814
1.65119
1.75494
1.7488
1.75562
0.0383709
0.00273685
0.0213199
0.130654
0.132699
0.162979
1.58237
1.55124
0.343598
1.7426
1.7435
1.74358
1.68595
1.6994
1.63757
0.139036
0.099076
0.146394
1.21728
1.32508
0.351217
0.0772904
0.402272
0.208818
0.056321
0.28958
0.312304
0.278238
0.268882
1.38209
1.25346
1.07049
0.864261
1.07308
1.06166
1.63972
1.6317
1.63996
1.59121
1.66504
1.58649
1.71726
1.66263
1.69392
1.72635
0.315134
0.344907
0.315221
0.173222
0.588096
0.6682
0.510413
0.547769
0.360324
0.221611
0.244427
0.228107
0.28747
0.281602
0.293378
0.31221
0.347241
0.31772
0.291315
0.23621
0.346997
0.2869
1.46992
1.51657
1.49622
1.52992
1.45947
1.48851
1.41606
1.43652
1.43261
1.33945
1.39393
1.36822
0.0226339
0.0770272
0.100218
0.170862
0.175224
0.0591663
0.102363
0.081067
0.0947347
0.0830767
0.137413
0.152178
0.190467
-0.0102545
1.02096
0.860557
0.487424
1.59613
1.66391
1.62675
1.67796
1.70048
1.72466
1.71426
1.66775
1.56086
1.58351
1.54314
1.55012
0.362005
0.195887
0.357118
0.444312
0.999612
1.51979
1.34438
1.24629
1.23211
1.40474
0.73288
0.575695
0.0365321
-0.430385
0.2736
0.0318972
0.1708
0.420723
0.668856
0.23957
0.310457
0.406422
0.305622
0.289644
0.476479
1.33898
0.691605
0.646013
0.964446
0.879932
0.654624
1.40096
1.41921
1.21128
1.13039
1.34478
1.31269
1.32929
1.31911
1.33029
1.3611
1.19939
1.12091
1.05208
1.47307
1.35074
1.36999
1.36851
1.60875
1.64644
1.58957
1.58619
1.63014
1.5638
1.56447
1.55479
1.62022
1.63486
1.61875
1.60037
0.355722
0.299212
0.376
0.246085
0.319001
0.18895
0.357653
0.496819
0.41526
0.568429
0.725115
0.446529
0.312109
0.38495
0.383714
0.585968
0.548263
0.464465
0.383304
0.436567
0.449566
0.472155
0.445328
0.289314
0.310702
0.37246
0.235535
0.360461
0.331642
0.401052
0.23425
0.28621
0.234551
0.224569
0.285848
0.365873
0.305497
0.354648
0.108329
0.121074
0.0480894
0.142237
0.275155
0.320124
1.54129
1.5157
1.52119
1.4984
1.5385
1.50586
1.3996
1.578
1.56076
1.52437
1.44773
1.41919
1.44463
1.43278
1.48213
1.46546
1.56538
1.55528
1.48268
1.46939
1.39614
1.44339
1.41419
1.41375
1.40058
0.0531232
0.12216
0.0815987
0.0959404
0.118027
0.146333
0.235975
0.15402
0.214599
0.220521
0.180348
0.132123
0.150604
0.35366
0.46193
0.260474
0.105484
0.0298352
1.00498
1.04835
0.903537
0.805848
0.856853
0.964244
0.985461
0.743328
0.795369
0.85375
1.17027
1.11228
1.63521
1.62993
1.62142
1.66935
1.62688
0.505208
0.708772
0.668878
0.978701
1.02294
1.03719
0.902509
0.904678
0.94862
0.981797
1.49868
1.53147
1.49409
1.52803
1.51839
1.28958
1.40404
1.38169
1.5375
1.44952
1.44068
1.4904
1.4658
1.40226
1.38312
1.42543
1.39198
1.3798
1.38007
1.36699
1.47578
1.43483
1.46891
1.43271
1.4625
1.41194
1.50039
1.53779
1.52141
1.376
1.37482
1.40725
1.42905
1.38805
1.39704
1.39254
0.938955
1.01247
0.930035
0.903401
0.930538
0.70975
0.731663
0.887996
0.905596
0.665173
0.442229
0.128601
1.26662
0.559898
0.483518
0.0106287
1.07788
1.16489
1.05061
0.927523
0.933581
1.45071
1.43303
1.45541
1.34516
1.29626
1.24044
1.24946
1.50043
1.21402
1.16352
1.20489
0.996586
1.08835
1.29894
1.21823
1.15904
1.19479
1.41669
1.21589
1.26069
1.36515
1.22151
1.22825
1.35029
1.40383
1.45921
1.41364
1.30397
1.33092
1.32928
1.35263
1.36964
1.36431
1.59064
1.59001
1.58817
1.60527
1.57999
1.5839
1.53486
1.58633
1.61012
1.60279
1.63449
0.240422
0.31884
0.32341
0.254082
0.33552
0.313474
0.406598
0.353107
0.358821
0.41397
0.376511
0.370875
0.390942
0.351271
0.425351
0.442387
0.390414
0.387271
0.658274
0.721044
0.734984
0.711943
0.63767
0.60592
0.672417
0.291596
0.35923
0.333152
0.276566
0.315198
0.202509
0.232191
0.182269
0.28565
0.273365
0.0968638
0.186956
0.20182
0.140675
0.207894
0.202222
1.49916
1.50163
1.47748
1.46848
1.4585
1.49081
1.51804
1.56178
1.55804
1.54012
1.52561
1.53172
1.52938
0.179393
0.277999
0.270415
0.15739
0.158133
0.0788473
0.0767169
0.851991
0.596025
0.634138
0.537114
0.336347
0.422166
1.06489
1.15799
1.15926
1.11866
1.03973
1.02281
1.12045
1.17373
0.871664
0.978736
0.936044
1.02864
1.06524
1.09442
1.02006
0.854742
1.11882
1.25281
0.877566
0.941274
1.08253
0.988861
1.08476
1.04621
1.19641
0.996451
0.968582
0.963517
0.950479
1.0332
1.02863
1.08188
1.13107
0.781417
0.857324
0.786869
1.4582
1.49855
1.50272
1.47217
1.48915
1.48482
1.44797
1.50658
1.52236
1.53366
0.282398
0.492733
-0.0477772
0.588598
0.825261
1.52435
1.18968
1.36497
1.44853
0.983218
1.22503
1.28689
1.28604
1.39178
1.2612
1.1857
1.25446
1.22633
1.25953
1.17197
1.13279
1.39311
1.34637
1.3977
1.39007
1.37022
1.41691
1.53682
1.60043
1.52666
1.58125
1.54615
1.57445
0.434839
0.366321
0.427912
0.409862
0.366814
0.320391
0.0951515
0.160371
0.278625
0.239808
0.22433
0.232113
0.748911
0.783209
0.568865
0.721068
0.514365
0.383594
0.407805
0.504008
0.626688
0.670933
0.944941
0.959222
0.997516
0.987582
0.859024
1.00779
1.1451
1.13382
1.16309
1.06168
1.07289
1.06884
0.648338
0.810463
1.37732
1.70433
1.40899
1.21793
1.01626
1.1248
1.40183
1.3081
1.31993
1.40709
1.35679
0.966915
0.956713
1.06831
1.10064
1.02704
0.962137
0.935166
1.05084
1.09446
)
;

boundaryField
{
    wall-4
    {
        type            zeroGradient;
    }
    velocity-inlet-5
    {
        type            zeroGradient;
    }
    velocity-inlet-6
    {
        type            zeroGradient;
    }
    pressure-outlet-7
    {
        type            fixedValue;
        value           uniform 0;
    }
    wall-8
    {
        type            zeroGradient;
    }
    frontAndBackPlanes
    {
        type            empty;
    }
}


// ************************************************************************* //
