/*--------------------------------*- C++ -*----------------------------------*\
| =========                 |                                                 |
| \\      /  F ield         | OpenFOAM: The Open Source CFD Toolbox           |
|  \\    /   O peration     | Version:  2206                                  |
|   \\  /    A nd           | Website:  www.openfoam.com                      |
|    \\/     M anipulation  |                                                 |
\*---------------------------------------------------------------------------*/
FoamFile
{
    version     2.0;
    format      ascii;
    arch        "LSB;label=32;scalar=64";
    class       surfaceScalarField;
    location    "1";
    object      phi;
}
// * * * * * * * * * * * * * * * * * * * * * * * * * * * * * * * * * * * * * //

dimensions      [0 3 -1 0 0 0 0];

oriented        oriented;

internalField   nonuniform List<scalar> 
1300
(
3.75095
5.62643
-6.98697
3.75095
-6.46751
5.62643
-6.42592
6.42592
-1.44227
1.44227
1.89699
1.85396
-5.84904
5.84904
-5.6786
5.6786
-3.08607
3.08607
-5.30096
5.30096
-5.2344
5.2344
3.91058
-3.91058
-5.35224
5.35224
-2.12667
2.12667
-6.47462
6.47462
3.19318
-3.19318
-5.65558
5.65558
-1.77164
1.77164
-0.548532
4.29949
3.20242
3.20242
-2.7598
2.7598
-5.44308
5.44308
6.21529
-6.21529
9.88603
-9.88603
-2.89906
-3.25629
1.32426
-7.96824
-5.14324
-5.14324
-8.45049
8.45049
-2.82406
2.80237
3.21146
-3.21146
-2.63327
2.63327
-6.13849
-0.287432
-6.13849
6.59897
-0.173053
6.59897
-1.65328
0.211008
-1.65328
4.77769
-4.77769
1.24111
0.201166
1.24111
3.20138
-3.20138
-1.88054
3.77753
1.87042
-1.79155
6.09104
-1.9594
3.81336
-4.95875
4.95875
-5.99544
0.146401
-5.99544
5.86847
-0.0194289
5.86847
-5.54873
5.54873
-5.6873
0.00870162
-5.6873
5.58635
0.0922529
5.58635
3.32073
-3.32073
-3.12884
0.0427644
-3.12884
3.0864
-0.000331252
3.0864
0.336926
5.2895
-5.96336
8.76572
-5.2895
-0.0114584
5.29787
0.00309235
5.29787
-5.23635
0.00195109
-5.23635
5.20566
0.0287432
5.20566
3.66368
0.246896
3.66368
-4.25717
0.34659
-4.25717
-3.18126
-3.29068
-5.40742
0.0551854
-5.40742
-2.19561
0.068936
-2.19561
2.08196
0.0447108
2.08196
-3.95805
3.95805
-6.65913
0.18451
-6.65913
3.16214
0.0310462
3.16214
1.82562
1.92533
5.57657
-5.57657
2.38339
-5.65548
-0.000101847
-5.65548
-5.67911
-4.20692
5.67911
-0.0235228
-1.11269
-0.658942
-1.11269
3.25265
-0.0502323
3.25265
2.94297
0.143436
-2.94297
0.183167
3.72326
-3.72326
2.22589
0.533913
2.22589
-5.5665
5.5665
5.28063
-0.0749747
-5.28063
-0.162446
6.1764
0.0388987
6.1764
-6.15307
-0.0622244
-6.15307
3.30022
-6.55651
-3.32266
5.23456
0.11768
-5.23456
0.0913148
3.23666
-0.0251986
3.23666
-3.18325
3.18325
-3.19504
-0.016418
-3.19504
-2.52248
-0.110783
-2.52248
2.70979
-0.0765227
2.70979
-5.69369
-0.444803
-5.69369
-6.68035
0.0212265
6.68035
-0.0813798
3.07299
-3.07299
-1.78066
0.127374
-1.78066
-5.18583
-0.507853
5.18583
-0.408148
-4.58311
-0.194573
-4.58311
-3.2273
0.0322555
3.2273
-0.0259168
3.17208
0.0805745
-3.17208
-0.0293037
-1.87561
3.80094
-1.87534
3.74576
-4.69617
-0.262585
-4.69617
5.19202
-0.233268
5.19202
6.33964
0.134981
-6.33964
0.344199
5.72852
0.139945
5.72852
-5.47641
-0.072319
-5.47641
5.58078
-0.032053
5.58078
5.64533
0.0831862
-5.64533
-0.0419686
5.72591
-0.139563
5.72591
3.32634
-0.00561432
3.32634
-3.20775
-0.112979
-3.20775
3.17723
-3.17723
3.08129
0.0959441
-3.08129
-0.0475457
-11.1396
11.0774
-0.0848592
-11.0548
5.21301
5.21301
2.993
0.670678
2.993
-4.72256
0.465396
-4.72256
3.31258
-6.63524
3.22679
-6.40805
3.23271
-11.201
3.39264
-6.68332
5.58572
-5.58572
5.42304
0.162678
-5.42304
0.0156128
-2.19258
-0.00303098
-2.19258
-3.76503
-0.193018
-3.76503
4.32116
-0.363108
4.32116
-3.22638
3.22638
-3.18096
-0.045415
3.18096
-0.0188246
5.62544
0.100468
-5.62544
-0.0300398
1.08882
0.152291
-1.08882
-0.0238756
3.853
-0.129748
3.853
-3.49273
-0.230528
-3.49273
-2.17453
-0.0180497
2.17453
0.0513583
-5.8952
0.328692
-5.8952
-11.1602
0.105453
-11.1571
-6.04762
-6.04762
2.40288
11.1686
-3.22429
0.0165344
3.22429
0.0123754
3.1386
0.0877824
-3.1386
-0.0446556
-3.19058
0.0133481
3.19058
-0.00733096
-2.38377
-0.13871
-2.38377
-2.87634
2.87634
-2.82379
-0.052548
2.82379
-0.114006
3.22603
-0.153044
3.22603
1.96602
0.115942
-1.96602
0.185363
-4.18689
-0.396222
-4.18689
5.25303
-0.0610041
5.25303
-3.40761
-0.0851208
3.40761
-0.0812629
0.00302544
11.0744
-5.21604
-0.020315
5.21604
-11.1133
11.093
-2.47678
0.0930046
2.47678
0.516225
5.16131
0.405199
-5.16131
0.438742
5.54698
0.0338035
-5.54698
-0.0387371
-3.5498
-0.215237
-3.5498
-4.52639
-0.169781
4.52639
-0.205231
-11.2234
-0.181438
11.4049
-11.1947
6.07663
0.0997608
-6.07663
11.1927
-2.90839
-0.164598
2.90839
-0.0320479
3.33096
-0.104924
3.33096
4.12633
-0.273322
-4.12633
-0.0605638
-5.41746
-0.0589545
5.41746
-0.164429
-3.50673
-0.0430676
3.50673
-0.175771
-4.20452
4.15429
1.88652
-3.36573
-3.19077
-7.57266
1.84836
1.95259
4.23175
-7.08817
-4.11279
-6.99685
6.83321
-6.39447
-6.69833
6.94523
7.61263
-7.8072
-5.78449
5.76567
6.29973
-6.32564
1.85139
1.92614
10.7463
-10.5999
-10.1518
9.88918
10.1004
-10.0917
10.4142
-10.4866
-11.9906
12.0244
-5.58455
5.62731
-6.58722
6.47424
-6.64709
6.56583
-3.2262
-3.18185
8.8062
-8.75102
11.5217
-11.5218
-11.1872
11.3717
3.28914
0.865144
3.36972
-1.9618
3.81319
-1.85157
3.73808
3.32749
-6.5537
3.30775
-6.49852
5.91568
5.60603
-5.89216
-1.6805
-5.82795
5.80275
-5.74135
5.73402
11.0188
-11.3062
-1.85606
3.7822
-1.88969
3.84228
-3.3667
-2.41779
3.33566
0.896091
5.47084
3.33536
-5.58852
-1.40833
-7.57937
7.30604
-7.70328
7.47275
-0.0409648
5.54783
-5.50687
5.40211
-1.81955
7.36738
5.01366
5.47906
5.62388
-5.21868
0.77059
-6.27746
-6.4399
-2.3475
2.47488
2.12763
-1.92646
6.54233
1.0703
6.13418
-5.2711
-2.5361
-5.66732
3.81037
1.9553
3.76496
4.03031
2.26942
4.06256
2.98378
-3.06932
0.0855472
-3.03346
6.01724
0.712881
-5.45125
-4.55516
6.91785
3.82847
6.89842
-7.39618
-3.20374
-7.05199
-6.14943
-4.00233
-6.31921
6.55211
3.33707
6.31884
-7.75225
7.58782
6.64186
3.45855
6.73411
-6.66361
-3.4281
-6.70557
10.2531
-2.83751
-7.41563
-6.9033
-5.08732
6.93536
3.47888
7.38212
4.64231
7.34338
3.5717
6.68143
-7.05058
1.96326
-3.73849
-1.84606
-3.78603
3.56715
2.06016
3.56682
-4.21358
-2.37364
-4.19704
-4.20402
-2.44307
4.20964
2.2646
-4.25053
-3.45276
4.33565
2.23018
3.15867
-7.27146
3.52465
-6.70649
-6.19916
-2.55185
-6.18355
4.03994
2.62166
-6.6616
-2.51375
10.6928
-5.08675
9.01228
-7.22563
-4.29619
-7.25567
-8.81408
-2.37307
-8.79286
-5.17964
4.9644
-5.62236
5.25925
10.5174
-5.88273
-4.63472
-3.99132
-2.33432
4.02062
-0.650908
-3.64436
3.72991
0.168829
3.90691
4.77206
4.12115
-3.7918
-1.94956
-3.83645
3.7521
1.98193
3.76544
8.53963
2.47913
8.36658
-7.63819
-3.668
-8.08299
5.48043
-5.59122
2.92661
-2.94466
5.07382
2.39894
-4.94407
-2.63529
5.8565
-3.06631
-2.79019
-12.2746
7.90857
4.36604
-4.90723
0.494887
2.26652
-4.66729
-2.03104
4.3207
1.15836
9.06693
7.03588
-5.25195
5.58065
6.15291
6.07794
-0.361963
3.81086
-3.71785
5.9388
-0.846931
-5.09187
5.76122
-6.26908
-2.32177
-5.96994
3.64817
-0.134898
0.148475
-0.807417
-1.94869
-0.398813
-1.76332
1.20388
0.923747
1.35617
1.01222
1.46265
-2.50992
0.252806
2.25711
-1.49769
-1.67366
-3.96624
-0.220031
4.18627
5.49645
1.8096
-5.43588
-0.231441
2.63448
-2.58977
-1.53388
-2.43237
1.23049
-2.76436
-3.05338
-2.1911
5.24448
-3.3239
-0.512554
3.23612
0.528838
-3.79006
-2.03789
3.80648
0.256086
-2.96209
5.98019
-3.0181
-4.91165
2.55878
3.45846
4.51408
-4.61141
2.3164
2.29501
-1.15295
5.84087
1.05755
5.98081
-8.94693
5.74319
7.79725
3.57442
-7.93223
0.880242
-8.06668
9.35603
-8.33684
-1.0192
4.83101
4.52502
5.33488
5.18256
-3.3868
8.72168
-1.25443
-7.0824
9.32112
-5.7467
5.43571
-11.1824
-10.6183
3.53587
-6.71428
8.34787
-1.63359
-2.39116
-5.36109
9.10544
-0.896748
-8.20869
5.42209
-5.12391
-5.39433
10.5182
-7.96142
8.82243
-2.53381
-6.28862
-6.53077
-3.95579
6.58972
0.9981
-9.70688
11.6701
-3.02545
5.76221
0.971905
5.62264
3.9151
-5.94055
2.02545
4.04631
-6.58013
2.37927
-8.31983
-4.77909
9.42926
-4.65017
-7.33094
-6.6628
-0.668136
2.07517
9.59497
-6.71748
5.3403
1.37718
3.20695
0.55849
-3.3029
-0.483134
0.338172
4.39514
-4.73331
3.90499
4.04843
3.4498
0.945337
3.78531
2.01744
-3.79769
-0.399355
-3.84692
1.40385
-1.58232
-3.47893
4.88278
-3.9191
0.440171
-2.60758
-3.39027
5.99785
-4.45365
2.87609
3.1041
4.85802
-4.74567
1.35541
-2.35519
-2.39049
2.5637
-4.14602
1.84473
3.03805
4.07492
0.622161
4.63144
4.79782
-7.25309
0.546604
8.13318
-6.72485
1.5598
5.78358
-6.9001
0.237291
-5.94626
1.12139
-6.20814
-5.54021
6.45691
-8.82998
-4.7255
8.08984
0.276744
-8.00846
-0.7844
-3.71392
-1.46573
-3.75698
-1.87848
-3.74389
-5.26527
-1.0275
-4.23777
3.9369
-4.21674
-2.10247
4.42197
0.83728
-4.4591
4.2945
-4.44001
4.33509
0.147837
3.58207
4.26898
1.93466
-2.42912
4.36379
-6.61956
9.09869
-10.6792
4.05967
4.40593
-8.07393
-6.2733
3.37407
2.10637
3.29754
5.58016
-6.92378
1.34362
-6.27253
7.27708
-1.00455
-9.77743
3.5049
-4.19727
2.59468
0.331928
2.59165
0.672172
2.2557
-2.92787
-2.27248
-2.22113
-2.22379
-3.26255
5.48633
0.996048
-3.22152
2.22547
-3.26994
4.26598
-0.202323
-3.0192
4.95054
-2.69484
5.28247
-3.47226
1.81021
3.16166
5.24299
-2.08133
4.12942
-1.73049
1.76842
-3.84974
-1.49413
-2.917
4.97716
-3.08085
3.52102
-0.243852
3.76487
-3.96853
0.902218
-0.518729
3.5297
3.71287
3.96849
-3.02316
2.67144
-4.40193
-1.1783
-3.77977
-0.741718
-0.870953
-5.02994
5.9009
4.84896
-5.71992
-2.78394
5.52587
-2.74193
4.70301
-3.29808
-1.40493
-2.72849
-2.86273
2.8672
0.943663
5.64667
0.332796
-3.63087
-3.38506
-2.86883
4.67527
1.26353
-1.04508
5.41112
-1.22144
1.36992
0.515548
0.840626
1.14409
-0.62854
-0.00933279
1.15342
-0.81675
1.89257
0.741908
-2.00851
0.245189
-1.71457
2.94506
0.542539
-1.46629
0.837747
2.32701
-3.17394
4.78685
-1.54017
-3.24668
7.11386
1.84695
-3.38712
4.12299
-4.25789
2.79068
-3.01071
-0.596442
-4.85433
-3.78403
-2.15393
4.3794
-3.33241
5.142
1.32602
-4.91056
6.23659
-3.44861
1.25751
-2.6984
3.4403
-0.817373
-1.88102
2.51635
2.72813
-2.79848
0.366117
-0.282136
1.99652
-2.27866
-0.76784
-2.26553
-4.44701
4.70309
-2.1862
4.50259
2.17759
-1.91372
6.41631
1.7962
-3.70992
-3.11545
-3.628
-1.41491
3.09917
-0.754368
-5.95121
-7.04298
5.86802
0.112793
-9.02304
10.0735
-1.05045
-5.19457
-0.548615
5.37963
-7.24238
0.662249
-4.8631
5.21039
6.26794
6.38074
-8.07943
-0.129255
-4.74236
1.22847
-5.97083
5.75349
-2.78875
6.32462
-6.77021
4.66774
-5.93293
5.30542
-0.665408
5.29017
-3.26472
2.12545
-6.08124
-5.08314
6.97432
-3.51577
7.94622
-3.97702
11.9232
-7.00247
7.06194
4.8613
-1.29302
-5.96265
-6.82241
5.52939
0.239538
5.86218
4.84969
-2.83226
4.45034
2.06932
-4.42451
-2.0767
-6.33526
1.91075
-3.23116
-1.72048
3.63123
3.13754
3.69603
1.24075
-3.2129
6.62805
-7.29618
-1.97787
-3.56234
6.76513
-1.23574
3.7392
-7.30154
-2.46894
5.10776
-0.547533
-4.56023
0.774968
-5.50047
2.5478
-8.04827
6.28218
-7.06658
1.22988
-5.42715
-3.22922
-3.26126
-1.29476
-3.14525
-4.5011
3.20634
-0.996205
3.29829
-5.37819
4.83065
-1.89889
5.10523
-3.31178
-0.445201
3.48755
0.847536
5.95277
-0.430342
-5.84296
-1.5204
5.67696
-4.15656
3.15487
-5.46028
0.216675
3.53682
3.57704
-7.18498
-0.88895
-6.73191
-2.38941
4.49577
3.13646
7.98543
1.06165
4.9964
-0.500629
6.05805
2.79691
2.68291
-3.81218
5.1558
2.08871
6.14838
-0.803858
2.61407
1.78779
1.85673
0.733042
2.20606
1.50681
3.10827
0.180405
-2.04072
3.09891
-5.96775
-0.53196
-5.29707
1.64816
4.04092
-2.39276
4.76353
-3.5
0.606968
2.77698
-1.75691
-1.02007
-2.31489
-0.386992
0.766429
-1.07757
1.91532
1.86748
-2.68175
0.36686
-0.0899521
-3.69408
3.10066
-2.73454
-0.00640998
6.23018
-2.32758
0.048926
-1.07007
-2.21661
-2.61542
2.37023
5.99992
0.416388
2.98182
5.11948
3.08159
0.249337
4.23452
-5.86811
-4.0853
-5.99737
-0.243875
5.13575
1.74623
7.84874
6.60753
5.3718
-1.92974
-9.22592
7.32771
-2.17191
6.32316
-1.76294
-6.28533
6.50298
2.59571
-6.77972
-0.286859
-6.57219
-8.7441
-0.332137
5.16279
-5.62063
5.17543
3.7097
0.528072
-2.75084
-0.510421
2.80339
-0.120482
5.93757
-1.11409
-5.53417
6.64826
-2.92683
2.39487
5.15797
0.253153
4.1379
0.637899
-4.89627
-7.28903
-1.10064
-2.07329
-4.34732
-0.161049
-1.70643
3.96291
-1.56803
2.55798
5.08023
5.6872
-1.60481
-4.1151
4.34674
-1.78877
3.89843
)
;

boundaryField
{
    wall-4
    {
        type            calculated;
        value           uniform 0;
    }
    velocity-inlet-5
    {
        type            calculated;
        value           uniform -3.75095;
    }
    velocity-inlet-6
    {
        type            calculated;
        value           uniform -5.62643;
    }
    pressure-outlet-7
    {
        type            calculated;
        value           nonuniform List<scalar> 8(6.98697 6.46751 6.15535 6.64398 6.47194 6.62288 6.53937 6.62535);
    }
    wall-8
    {
        type            calculated;
        value           uniform 0;
    }
    frontAndBackPlanes
    {
        type            empty;
        value           nonuniform List<scalar> 0();
    }
}


// ************************************************************************* //
