/*--------------------------------*- C++ -*----------------------------------*\
| =========                 |                                                 |
| \\      /  F ield         | OpenFOAM: The Open Source CFD Toolbox           |
|  \\    /   O peration     | Version:  2206                                  |
|   \\  /    A nd           | Website:  www.openfoam.com                      |
|    \\/     M anipulation  |                                                 |
\*---------------------------------------------------------------------------*/
FoamFile
{
    version     2.0;
    format      ascii;
    arch        "LSB;label=32;scalar=64";
    class       volVectorField;
    location    "1";
    object      U;
}
// * * * * * * * * * * * * * * * * * * * * * * * * * * * * * * * * * * * * * //

dimensions      [0 1 -1 0 0 0 0];

internalField   nonuniform List<vector> 
918
(
(0.843311 -0.206698 0)
(0.0183881 2.97259 0)
(-0.141764 1.80528 0)
(0.713885 0.220345 0)
(0.0474282 1.73172 -2.33418e-20)
(-0.0633376 2.88688 -3.33314e-19)
(1.1346 1.76975 4.52713e-20)
(0.477415 0.282735 -5.82926e-21)
(0.930614 0.00261987 0)
(0.0354349 1.78784 0)
(0.013527 1.74109 0)
(0.945453 0.0101464 0)
(-0.060382 2.98225 0)
(0.0100433 2.92733 0)
(-0.0879643 2.70234 2.29329e-20)
(-0.0133465 1.7197 -2.51676e-20)
(0.68351 0.160245 4.72859e-19)
(0.226645 2.06318 4.7779e-20)
(0.998152 -0.000943604 0)
(0.0279584 1.7336 0)
(0.814691 0.206251 2.54408e-21)
(0.751614 -0.0723806 0)
(0.882431 0.00496267 0)
(1.02472 0.054659 0)
(0.858112 0.0455339 0)
(-0.00418593 3.01315 0)
(-0.0201279 2.89677 1.05852e-19)
(-0.13663 1.73261 0)
(-0.0400306 1.66818 0)
(-0.170262 1.71233 0)
(0.0416009 1.74434 0)
(-0.0353272 1.69725 1.7955e-20)
(-0.0305646 1.72604 0)
(-0.0441175 3.00496 -9.44961e-24)
(-0.0366137 2.97012 2.72549e-19)
(0.0111971 3.01465 0)
(0.982946 -0.00645798 0)
(0.817517 1.26768 1.2505e-19)
(1.14282 1.6792 4.86997e-20)
(1.26183 1.55274 -2.59837e-21)
(0.971822 1.88279 -1.11121e-20)
(0.936444 1.93934 8.22285e-20)
(0.530465 0.301891 5.65822e-21)
(0.54134 0.283196 0)
(1.36955 0.779715 0)
(0.467958 0.31685 2.35209e-20)
(0.423331 0.290413 -2.44278e-20)
(0.982432 -0.0152474 0)
(1.04566 -0.00330355 0)
(0.93252 -0.00821808 0)
(0.976105 -0.0984718 0)
(1.02441 -0.0207046 0)
(0.973018 0.00495381 0)
(0.0190227 1.61738 -2.32048e-19)
(0.0345046 1.82656 0)
(0.042171 1.82727 0)
(-0.0192021 1.8014 0)
(-0.0139606 1.7997 0)
(0.00469535 1.7161 0)
(0.018069 1.75798 0)
(0.0103605 1.74371 0)
(-0.0010586 1.74863 0)
(-0.0074424 1.70323 0)
(1.01409 0.00488104 0)
(0.964392 0.0184667 0)
(0.958377 0.00186584 0)
(0.952535 -0.00449965 0)
(0.943114 -0.00183139 0)
(0.0105469 2.98943 1.09176e-19)
(0.0288693 2.96796 0)
(-0.00177177 2.97295 0)
(-0.042063 3.01687 1.00029e-24)
(-0.0222221 2.93705 -1.6626e-19)
(-0.0276486 3.0196 0)
(0.0126881 2.95336 0)
(0.0211214 2.97447 1.92926e-25)
(0.011029 2.93187 0)
(0.0434921 2.99793 0)
(0.0849752 2.89439 0)
(0.124029 2.81468 0)
(-0.142906 2.83069 0)
(-0.0159254 2.75381 -2.10941e-20)
(-0.130808 2.66907 0)
(-0.00418181 1.73479 0)
(-0.00781135 1.738 2.48202e-20)
(-0.00114871 1.71238 -2.74658e-20)
(0.723432 0.162267 -1.64503e-19)
(0.727026 0.146249 -1.60947e-19)
(0.693743 0.215165 -4.88378e-19)
(0.664406 0.202398 -3.10768e-19)
(0.184743 1.38628 0)
(0.343402 2.11733 -5.31326e-20)
(0.461807 2.09794 9.57972e-20)
(0.99236 -0.0110269 0)
(0.963321 0.00144653 0)
(0.941853 0.00472154 0)
(1.01653 0.030103 0)
(0.929132 0.0606673 -1.76783e-18)
(0.977755 0.0895442 1.33908e-18)
(0.0117394 1.75501 0)
(0.0113204 1.73201 0)
(0.0123348 1.71009 0)
(-0.0154529 1.74125 0)
(-0.0113818 1.75453 0)
(0.843666 0.1559 1.54926e-20)
(0.393981 0.354448 0)
(1.01317 0.0306567 0)
(0.987805 -0.000775769 0)
(0.941307 0.0320284 0)
(0.891161 0.0919021 0)
(0.88636 0.00483175 0)
(1.1423 -0.00526318 0)
(0.837717 0.0248645 0)
(0.81767 0.020124 7.58735e-19)
(-0.0522922 2.88454 6.67881e-20)
(-0.0174451 2.98432 0)
(-0.0612071 3.07156 0)
(-0.0140904 2.93685 0)
(-0.00769739 2.96984 9.35549e-20)
(0.0295655 2.91981 0)
(0.00565678 2.97481 -3.00325e-19)
(-0.0426972 2.92944 1.0235e-19)
(0.034206 1.74853 0)
(-0.00673705 1.75499 0)
(-0.00702856 1.73461 -8.46878e-22)
(-0.039662 1.74611 0)
(0.0314526 1.70287 0)
(0.999071 0.00200737 0)
(0.993268 -0.0112291 0)
(0.973016 -0.000899892 0)
(0.997939 -0.00784012 0)
(0.97222 0.0192434 0)
(0.898665 1.32555 -1.56038e-19)
(0.877229 1.23214 0)
(0.815917 1.33828 1.9215e-20)
(0.770743 1.24166 0)
(1.20424 1.43769 9.31289e-21)
(1.35377 1.26174 -3.68086e-20)
(0.569709 2.11343 0)
(0.79339 2.02323 0)
(0.714461 2.05141 0)
(0.546223 1.26192 -1.15736e-19)
(0.565713 0.300966 0)
(0.569549 0.250056 8.30777e-20)
(1.22836 1.21755 0)
(1.26308 0.959191 0)
(1.37455 1.01459 7.52539e-20)
(1.32488 0.751198 0)
(1.38133 0.616406 1.80279e-20)
(0.991371 0.0184069 0)
(0.993044 -0.00520298 0)
(0.990116 -0.00869062 0)
(0.998014 0.00373268 0)
(0.994353 -0.0249357 0)
(0.96267 0.0132714 0)
(1.02646 0.00990302 0)
(0.992585 -0.000742244 0)
(0.942466 0.00523198 0)
(0.00889975 1.61812 1.21856e-19)
(-0.0173538 1.55479 0)
(0.0270674 1.6726 2.18586e-19)
(0.030574 1.67052 -1.95329e-19)
(0.123828 2.02547 -3.69687e-20)
(0.0224734 1.92362 0)
(0.0382468 1.94956 0)
(-0.00708632 1.80371 0)
(-0.00303753 1.74895 0)
(-0.0123645 1.7223 -9.79105e-22)
(-0.0234916 1.70704 0)
(-0.00462663 1.74493 -5.64637e-20)
(-0.00478902 1.727 1.07028e-19)
(0.0319026 1.76053 0)
(0.013711 1.75598 0)
(0.00306004 1.72252 0)
(-0.00398067 1.7478 0)
(-0.0117421 1.75175 0)
(1.03308 0.00869523 0)
(1.01599 0.000803699 0)
(1.00764 0.0117343 0)
(0.977834 -0.0132729 0)
(0.970932 -0.00678291 0)
(0.976766 0.00509134 0)
(0.963391 0.0119037 0)
(0.936145 -0.000528604 0)
(0.0190693 3.06427 -8.99053e-22)
(0.0343775 3.04626 0)
(0.045219 2.99585 0)
(0.0283552 2.92536 0)
(0.67169 3.02836 0)
(0.999743 2.35567 9.4089e-20)
(-0.0534119 2.84135 0)
(-0.0456237 2.75229 0)
(-0.00316198 1.78535 0)
(-0.0181281 1.69316 0)
(0.00150774 1.74112 0)
(0.0269906 1.73166 6.68933e-22)
(0.0179651 1.78986 0)
(0.0219577 1.7696 0)
(0.0261435 1.7327 7.1276e-21)
(0.00829248 1.75654 3.5896e-20)
(-0.0066252 1.72665 2.81054e-20)
(0.00899459 1.687 0)
(0.752433 0.146712 2.58275e-19)
(0.74344 0.0834222 -2.53432e-19)
(0.204694 1.42634 0)
(0.247311 1.35417 -6.86772e-20)
(0.145272 1.48606 -2.12427e-19)
(0.105136 1.48153 2.12111e-19)
(0.986862 -0.00897237 0)
(0.989578 -0.0164849 0)
(0.984796 -0.0003051 0)
(0.970284 0.00781541 0)
(0.00854298 1.76938 0)
(0.0226147 1.74345 0)
(0.00871315 1.71993 0)
(0.434749 0.29424 2.00269e-19)
(0.488846 0.264078 -1.91438e-19)
(0.385847 0.293993 0)
(1.19674 0.0935971 2.54406e-20)
(1.23801 0.035037 0)
(1.11982 0.0561802 0)
(1.0645 -0.00752047 0)
(0.774423 0.0967635 0)
(0.818595 0.0633308 -1.21163e-18)
(0.757183 0.0546099 4.51743e-19)
(-0.015953 2.98754 6.25593e-20)
(0.0522826 2.93243 5.04004e-21)
(0.055109 3.02153 -2.33609e-21)
(0.065461 3.03717 6.31809e-20)
(-0.040682 2.94837 4.28785e-21)
(-0.114268 2.90226 -1.42285e-23)
(-0.0573633 3.05654 -5.78487e-20)
(0.069697 3.05199 4.14857e-20)
(0.0748386 3.07709 -6.53609e-20)
(1.0087 -0.000579275 0)
(0.994278 0.0274259 0)
(0.979497 0.0261443 0)
(0.993276 -0.00611282 0)
(0.979902 0.000154368 0)
(0.954391 4.35275e-05 0)
(0.982901 -0.00940877 0)
(0.989182 0.00750829 0)
(0.977531 0.00703937 0)
(0.968023 1.29502 -1.30928e-19)
(0.886332 1.26314 0)
(0.658074 1.23767 3.50111e-20)
(0.691706 1.33217 2.69303e-19)
(0.76823 1.32777 -1.62177e-19)
(0.723826 1.26245 3.12243e-19)
(0.510595 1.32883 5.62139e-19)
(0.498478 1.27754 1.05614e-19)
(0.664628 0.241284 3.27386e-19)
(0.613665 0.276047 8.32825e-20)
(0.6248 0.23373 1.58389e-19)
(1.28062 0.552322 -1.38254e-19)
(1.33383 0.368517 -1.60902e-19)
(-0.00211642 1.69781 9.12436e-20)
(-0.00309433 1.66441 0)
(1.07526 0.0188753 0)
(1.04484 0.0145899 0)
(1.03827 0.00206875 0)
(0.0148303 3.06229 0)
(-0.00865943 2.98368 1.17262e-19)
(-0.0109647 2.97096 0)
(-0.0279123 2.90323 -1.20166e-19)
(-0.00597953 3.0558 2.71096e-20)
(0.0117715 3.05985 0)
(0.948077 1.3531 1.2809e-20)
(0.942096 1.60619 -1.10269e-19)
(0.798665 1.42253 4.00173e-21)
(-0.0384574 2.92634 -6.15024e-20)
(-0.0307292 2.87154 0)
(-0.0598203 2.83334 0)
(-0.00556394 1.74338 -3.52239e-21)
(0.0193867 1.73595 -9.03634e-20)
(-0.0254195 1.71425 -9.0576e-22)
(0.254016 1.37348 2.2231e-19)
(0.265238 1.31462 -1.51027e-19)
(0.0136111 1.60643 1.63771e-19)
(0.0731163 1.54895 -1.86673e-19)
(0.0567997 1.52684 1.28314e-20)
(-0.0733676 3.06666 -1.1758e-19)
(-0.0544586 3.07912 1.39668e-19)
(0.0108145 2.97762 6.91075e-20)
(0.046505 2.98684 -6.66174e-20)
(0.0624183 2.93514 -7.04248e-20)
(-0.000795286 3.04942 -1.99284e-19)
(-0.0403978 3.03845 2.06648e-19)
(0.541367 1.29604 0)
(0.591757 1.32734 -5.71568e-19)
(0.559163 1.23003 2.54007e-19)
(0.427494 1.35572 3.00363e-19)
(0.428779 1.29441 -4.69615e-19)
(1.24831 0.197321 9.57205e-20)
(1.30692 0.360642 0)
(1.32805 0.251955 -8.51486e-20)
(-0.00545199 1.7321 -1.0943e-21)
(-0.0041683 1.69968 0)
(0.0215962 1.69473 0)
(0.300834 1.39212 -7.85523e-20)
(0.364356 1.35945 -1.81018e-19)
(0.384945 1.33297 3.36932e-19)
(0.977089 -0.00820952 0)
(1.00184 -0.0527998 3.31649e-19)
(0.0386356 1.75232 0)
(-0.0289767 1.75009 0)
(1.03337 -0.0172701 6.45297e-21)
(0.912937 -0.00118464 6.74363e-19)
(0.010519 1.79409 -8.99478e-22)
(0.0662039 1.8114 0)
(-0.0788164 2.95695 5.06908e-20)
(-0.0756971 2.56856 0)
(1.17319 0.649284 -8.9065e-20)
(1.01431 -0.0143907 -4.93509e-21)
(0.978941 0.0310463 0)
(0.970759 -7.2931e-05 -1.32883e-21)
(0.0401322 1.87445 0)
(0.12983 1.7072 0)
(-0.0259537 1.77588 0)
(0.062188 1.75873 6.58722e-20)
(-0.0107334 1.75197 4.91253e-20)
(0.979317 -0.00192122 2.75983e-21)
(1.024 0.0681374 0)
(1.0485 0.0377451 0)
(-0.0160288 1.71017 0)
(0.0263016 1.74708 0)
(-0.0237552 1.7562 0)
(0.236048 1.93653 2.94532e-20)
(0.982256 -0.0483104 0)
(0.997454 -0.0465781 0)
(0.963925 0.0307314 4.22151e-19)
(1.00422 0.0295589 -5.01295e-19)
(1.04205 -0.0571506 0)
(0.00952373 1.74094 0)
(0.0115302 1.73216 0)
(-0.00786993 1.7737 0)
(-0.00881703 1.77624 0)
(-0.0461098 1.77309 0)
(0.00425579 1.73954 0)
(0.995305 0.0138519 0)
(1.00886 -0.0190669 -1.86592e-21)
(0.85639 1.64448 -2.3744e-20)
(0.961237 -0.052843 -4.20548e-19)
(1.03959 0.022079 5.06718e-19)
(1.03747 0.0205821 0)
(0.985682 -0.00021038 4.02956e-19)
(1.01826 0.0600075 -5.00815e-19)
(0.999663 0.0270673 0)
(0.0245072 1.76057 0)
(0.0432658 1.77005 3.0551e-20)
(-0.0102689 1.74822 -2.21738e-20)
(1.1298 0.275728 5.43959e-19)
(1.07446 0.0765396 0)
(-0.235825 2.98913 -1.05748e-19)
(-0.0646425 3.13946 -4.15936e-21)
(-0.100659 2.95347 2.18373e-19)
(-0.0377678 2.94343 -1.78966e-20)
(-0.0413381 2.93669 0)
(-0.0529421 2.95967 2.83372e-20)
(-0.0646664 3.05901 9.77545e-20)
(-0.0696717 3.00952 -5.34755e-20)
(-0.0900937 3.0691 0)
(0.630131 0.282867 0)
(0.485382 0.342574 0)
(1.07192 0.812845 2.62253e-19)
(1.15205 0.944592 -3.28228e-19)
(1.10804 0.590003 0)
(1.12735 0.602551 0)
(1.01954 0.0081954 -7.55521e-19)
(0.98115 -0.00782058 9.52563e-19)
(1.02166 -0.0471145 0)
(1.01376 -0.0409693 0)
(0.95072 0.0507676 0)
(1.02437 -0.0211413 0)
(1.01855 0.00885782 0)
(1.01042 -0.0353065 0)
(1.00048 -0.0754483 0)
(0.977789 0.0046541 0)
(0.0392429 1.868 0)
(0.0122816 1.81276 0)
(0.119089 1.86753 0)
(0.16492 1.91436 0)
(0.0944464 1.66288 0)
(0.0309761 1.69044 -1.15683e-19)
(0.122707 1.71356 0)
(0.0523297 1.68475 7.64917e-20)
(0.079501 1.74769 -8.82187e-20)
(-0.0147197 1.78802 0)
(0.0532026 1.75422 0)
(-0.0247225 1.77036 0)
(-0.0373826 1.7611 0)
(0.00109419 1.72624 -4.25699e-20)
(-0.0474291 1.77194 6.57299e-20)
(0.0591346 1.77316 6.72502e-20)
(0.0179499 1.76475 0)
(0.00786042 1.7483 -1.25555e-19)
(0.0154907 1.73512 -6.94484e-20)
(0.0151187 1.76846 3.22083e-20)
(-0.0926836 1.70142 -8.35919e-20)
(0.0529793 1.72731 -8.2109e-20)
(0.989547 -0.00680622 6.87252e-19)
(0.987835 -0.040301 -8.74499e-19)
(0.980647 0.0267098 -6.99575e-19)
(0.921634 0.00511675 8.91617e-19)
(1.04724 0.0479989 0)
(1.05241 -0.00930124 0)
(1.05178 0.0244924 0)
(1.05303 0.015023 0)
(1.04224 -0.00785731 0)
(1.08731 0.0615733 0)
(1.06181 0.0378068 0)
(1.06287 0.0276923 0)
(-0.132777 1.73323 -2.31996e-21)
(0.0382207 1.7497 0)
(-0.0202413 1.73139 0)
(0.0164401 1.75147 1.92669e-20)
(0.0327936 1.77902 -8.34934e-22)
(-0.00641414 1.79707 1.90753e-20)
(-0.0326245 1.73221 -1.90444e-20)
(-0.028096 1.75966 0)
(-0.0251968 1.75593 0)
(0.0500419 1.71498 0)
(-0.0233437 1.76331 0)
(-0.0491229 1.79072 0)
(0.422626 1.91599 -8.03944e-20)
(0.453085 1.99819 -5.52096e-21)
(0.302932 1.45659 -5.47905e-20)
(0.225595 1.57277 1.49474e-19)
(0.318859 1.71787 4.14785e-20)
(1.02757 0.0137852 0)
(0.995735 0.0128953 0)
(1.02894 0.0480584 0)
(0.96721 -0.0309613 0)
(1.01745 0.0135637 0)
(0.968999 0.0259699 0)
(0.987039 0.0758882 0)
(0.995248 0.0676224 0)
(0.998349 -0.0192573 7.256e-19)
(1.00786 -0.0252641 -9.2472e-19)
(1.00729 0.00945997 -7.15095e-19)
(0.983608 0.019285 9.04527e-19)
(0.867457 1.6695 0)
(0.798637 1.73516 -5.31854e-20)
(0.917185 1.56466 -7.04102e-20)
(1.00982 1.49739 9.35187e-20)
(0.865831 1.53253 5.29127e-19)
(0.84618 0.109059 2.93705e-19)
(1.09541 0.090659 0)
(1.15515 0.220618 -4.42641e-19)
(1.13949 0.0971644 -1.82384e-20)
(0.958128 0.120924 0)
(-0.591272 2.82182 1.3549e-19)
(-0.364816 2.78679 -1.62979e-19)
(-0.417401 3.12813 5.58484e-20)
(-0.281912 1.36686 4.27762e-20)
(-0.142734 2.72688 2.98566e-20)
(-0.0174803 2.92893 0)
(0.0283732 2.77369 -3.89463e-20)
(-0.532294 2.80416 -3.30022e-19)
(-0.57539 2.63993 0)
(-0.0506904 3.02076 3.84556e-21)
(-0.0729523 3.05605 -6.10933e-20)
(-0.0596551 3.04692 9.16906e-20)
(-0.051135 3.08017 0)
(-0.0733038 3.00612 0)
(1.01466 1.80377 0)
(0.249135 1.05051 -2.42755e-19)
(1.1149 1.16958 1.04467e-19)
(0.932525 1.39464 0)
(0.795554 1.16134 -1.0651e-19)
(1.04058 1.10001 1.07808e-20)
(0.270515 -0.119334 -1.43535e-19)
(0.640773 0.291627 -3.41393e-21)
(0.638091 0.31192 1.78835e-19)
(0.459641 0.382044 1.0352e-20)
(0.415102 0.3261 -3.93759e-19)
(0.583465 0.386019 0)
(0.586424 0.45492 2.86598e-19)
(0.578621 0.377644 0)
(0.484607 0.385401 0)
(0.525707 0.354271 0)
(0.598385 0.720398 2.37331e-19)
(1.17747 0.248068 -4.38525e-19)
(1.16957 0.428922 0)
(1.2201 0.294544 0)
(0.751271 0.20739 2.82718e-19)
(0.632784 0.655878 -1.79744e-19)
(0.55916 0.523129 3.37457e-19)
(0.837086 0.388638 -3.9977e-19)
(0.997975 0.00652896 4.98664e-19)
(1.00103 0.0717262 -5.10235e-19)
(1.00975 0.0515469 0)
(1.0372 -0.014965 0)
(1.01525 -0.0305635 -4.77742e-19)
(1.0161 0.0193007 4.74005e-19)
(0.980683 0.0222137 0)
(0.968116 0.001506 0)
(1.00748 -0.00337986 0)
(1.00556 -0.0145296 0)
(1.00736 -0.000605694 0)
(0.967704 -0.0219467 0)
(0.0629705 1.80356 0)
(0.0845607 1.80231 0)
(0.0961815 1.8024 -7.8657e-20)
(0.227096 1.94415 -2.32532e-20)
(0.187098 1.92643 -6.12629e-20)
(0.152837 1.93405 9.30235e-20)
(0.0612357 1.77471 0)
(0.214284 1.7274 -1.0316e-19)
(0.0908872 1.77279 0)
(0.297961 1.69449 -5.9395e-20)
(0.259867 1.59965 1.98576e-19)
(0.226113 1.74573 9.08277e-20)
(0.189596 1.84945 -3.66812e-20)
(0.168466 1.79645 2.94491e-20)
(0.215729 1.80372 -1.20457e-19)
(0.210134 1.72412 0)
(0.237395 1.68864 9.19516e-20)
(0.0281701 1.69709 -3.92415e-20)
(0.0340612 1.71721 0)
(0.0142402 1.71913 9.78383e-20)
(-0.00813385 1.71061 0)
(0.0189224 1.70794 -8.58922e-20)
(-0.00893846 1.699 0)
(0.0305947 1.74669 -5.38226e-20)
(0.065349 1.75118 0)
(0.0577146 1.7429 0)
(0.0268553 1.79134 6.10435e-20)
(0.0160366 1.7391 2.86588e-21)
(0.0671096 1.75468 1.0518e-19)
(0.0113629 1.72154 9.22588e-22)
(0.0945442 1.68095 2.76308e-20)
(0.0431209 1.68282 1.90695e-20)
(0.0267851 1.74988 0)
(-0.0700735 1.74692 0)
(-0.0102391 1.75462 8.47435e-20)
(-0.0410426 1.75857 9.56022e-20)
(0.0124124 1.78902 -1.16067e-19)
(0.0110819 1.75322 0)
(0.0367767 1.75199 -7.30382e-20)
(-0.048949 1.72364 1.80134e-20)
(-0.00901923 1.78968 -5.256e-21)
(0.100108 1.77352 -3.30157e-20)
(0.0285023 1.7193 -1.81841e-20)
(-0.0101838 1.73323 9.17099e-20)
(0.988262 0.0372083 -4.85083e-19)
(0.992807 -0.0437954 4.70881e-19)
(0.997258 0.046462 0)
(0.960573 -0.026251 6.39793e-19)
(0.918978 0.0954548 -7.08815e-19)
(0.947631 0.0465693 7.74062e-19)
(0.968215 0.00889748 -8.22309e-20)
(1.0393 -0.054694 0)
(1.02891 -0.0136338 4.60735e-19)
(1.02506 -0.0379319 -4.581e-19)
(0.98395 0.00693508 -2.62193e-20)
(0.994521 0.036484 2.18342e-19)
(0.966111 0.0661066 0)
(0.982244 0.0799049 -7.83325e-20)
(0.983085 0.0251197 0)
(0.988031 0.0514222 0)
(1.02463 0.0724551 0)
(0.97623 0.0160485 0)
(1.00539 0.0454748 1.61729e-19)
(1.0265 0.017578 -3.59774e-19)
(0.99088 -0.00109352 -1.70989e-19)
(1.01337 0.0202832 -1.90628e-19)
(1.03443 0.0461861 3.72961e-19)
(1.02051 0.0496467 0)
(1.02019 0.0308639 0)
(0.037859 1.79109 -2.01417e-20)
(0.0968923 1.70242 -3.93831e-21)
(0.0235541 1.69504 0)
(0.0294526 1.78818 2.04399e-20)
(-0.0790291 1.70725 6.02828e-21)
(0.0336479 1.74976 -7.39287e-21)
(-0.0440296 1.76255 6.24953e-20)
(0.0200922 1.76899 -3.34134e-21)
(0.0878151 1.73905 1.6216e-20)
(-0.0435739 1.77159 -2.83704e-20)
(-0.0703477 1.77939 3.44802e-20)
(0.0184748 1.72841 -3.01715e-21)
(-0.028399 1.76203 4.63821e-20)
(0.468698 1.81225 5.10543e-20)
(0.38704 1.76875 1.32616e-19)
(0.752183 1.78636 5.13142e-20)
(0.599877 1.92075 5.30479e-21)
(0.649077 1.93888 0)
(0.26594 1.47021 6.37963e-20)
(0.267631 1.43311 8.04095e-20)
(0.216077 1.51314 1.05003e-20)
(0.331384 1.53064 -2.33443e-19)
(0.328121 1.48593 1.97023e-19)
(0.282019 1.47738 0)
(0.183691 1.48705 -1.29369e-19)
(0.0851144 1.62049 2.99899e-19)
(0.170187 1.60832 -1.93326e-23)
(0.0488879 1.5824 -3.91143e-19)
(0.614444 1.39903 3.51014e-19)
(0.457218 1.44515 0)
(1.00839 0.0687381 1.607e-20)
(0.996063 -0.0557073 -1.35983e-20)
(0.987032 -0.082443 -2.45596e-19)
(1.02992 0.0107233 2.47556e-19)
(0.997605 0.0391648 0)
(0.795124 1.60243 0)
(0.747293 1.55932 0)
(0.890667 1.35589 0)
(0.637135 1.42487 0)
(0.854983 1.52438 -3.55586e-22)
(0.834403 1.50782 0)
(0.576943 1.49247 2.93281e-21)
(0.471262 1.4829 0)
(0.571595 1.48313 -2.58452e-19)
(0.5582 1.47381 1.67187e-19)
(0.820927 0.125027 0)
(0.773139 0.124466 7.74968e-20)
(0.879574 0.108132 4.81571e-19)
(0.837284 0.0993547 -1.73961e-19)
(0.848043 0.120239 -5.48722e-19)
(1.03786 0.196157 -5.6373e-19)
(0.86161 0.328079 -8.91957e-21)
(0.883993 0.231431 4.27968e-19)
(0.925933 0.181956 4.17285e-19)
(0.866998 0.161423 -6.50318e-19)
(0.869888 0.252975 7.87981e-20)
(0.770004 0.270964 -1.90824e-19)
(0.805459 0.25093 0)
(0.951238 0.120588 3.22151e-19)
(0.982991 0.174978 0)
(0.935533 0.200574 0)
(1.04001 0.161018 1.85005e-19)
(0.970777 0.246896 -1.75927e-21)
(0.934622 0.162328 -1.03591e-19)
(1.01673 0.156277 0)
(1.00701 0.0503117 3.59929e-19)
(0.974546 -0.0114519 4.46591e-19)
(1.01769 0.0498159 -3.49527e-19)
(0.995968 0.0833832 -3.00248e-19)
(0.953323 0.01822 -4.53099e-19)
(0.936833 0.174276 0)
(0.962981 0.0347544 0)
(0.907589 0.0715561 -2.72548e-19)
(0.886522 -0.00840233 1.01941e-19)
(1.00731 0.0983587 4.01754e-19)
(1.01765 0.111195 -5.15218e-19)
(0.95365 0.117556 4.52368e-19)
(0.913975 0.154313 0)
(0.994601 0.122206 0)
(0.95265 0.0661223 -2.08597e-19)
(0.978547 0.0658611 -3.31616e-19)
(0.629733 1.51521 1.24169e-19)
(0.618713 1.56824 -1.36077e-19)
(0.747028 1.57575 -1.86298e-19)
(0.748474 1.77772 4.72635e-20)
(0.909485 1.58852 -4.92895e-19)
(1.02868 1.75051 1.32384e-19)
(1.04252 1.58926 -5.52252e-21)
(0.869654 1.6935 -2.00696e-19)
(0.827759 1.66578 3.0032e-19)
(0.919272 2.02133 5.47709e-20)
(0.987916 2.00808 -5.48272e-20)
(0.956613 2.02507 0)
(0.3418 1.30614 -2.65039e-20)
(-0.81571 1.79674 7.99831e-20)
(-0.306734 0.253492 1.2367e-19)
(-0.356265 0.575614 -2.01344e-20)
(0.368962 0.36623 2.23137e-19)
(0.314585 0.350553 -3.99221e-19)
(0.270071 0.342792 3.13988e-19)
(0.26487 0.292654 -8.25743e-20)
(0.358868 0.220988 2.06721e-19)
(0.726186 0.28403 -1.65536e-19)
(0.656813 0.318532 0)
(0.685635 0.271095 6.7969e-22)
(0.504613 0.481023 1.54956e-19)
(0.410983 0.509405 -5.59655e-19)
(0.359307 0.416551 -9.78111e-21)
(0.428998 0.392277 0)
(0.442005 1.02054 2.16013e-19)
(0.738629 0.967353 2.48336e-19)
(0.60617 1.10441 -2.85955e-19)
(0.718484 0.963752 -1.0855e-19)
(0.91545 0.943186 -3.61537e-20)
(0.902555 1.05828 3.7253e-20)
(0.708519 0.669749 -3.96409e-19)
(0.777283 0.908164 1.01511e-19)
(0.942832 0.846772 0)
(0.870283 0.768298 -1.43509e-19)
(0.847811 0.278166 1.3808e-19)
(1.02588 0.373322 2.33781e-19)
(0.994885 0.251558 2.23126e-19)
(0.892107 0.411336 -2.65475e-19)
(1.03455 0.37987 0)
(1.03566 0.380827 0)
(0.756753 0.440381 -7.33106e-21)
(0.76759 0.247938 0)
(0.711272 0.255045 1.96577e-19)
(0.843408 0.275144 -2.93626e-21)
(0.864821 0.463573 1.11337e-18)
(0.757271 0.550158 2.92069e-19)
(0.78035 0.472462 -2.83967e-19)
(0.711138 0.408578 3.03592e-19)
(0.67992 0.509571 1.69817e-19)
(0.630411 0.416549 -1.64279e-19)
(0.996822 0.0693738 3.97666e-19)
(0.965308 -0.0528873 0)
(0.998937 -0.0107486 2.64345e-19)
(0.914107 0.0661074 -5.94687e-19)
(1.01975 -0.0207408 2.8622e-19)
(0.985073 0.0345358 -6.04678e-19)
(1.03022 -0.0106902 0)
(0.990972 -0.0231414 -1.25645e-19)
(1.0182 0.0400078 3.13697e-19)
(0.98488 0.00965504 -1.60591e-19)
(0.953379 -0.0535467 1.18199e-19)
(-0.0227453 1.80714 0)
(0.140982 1.73217 0)
(0.0353303 1.78888 0)
(0.00886748 1.8318 0)
(0.0482473 1.79181 1.49171e-19)
(0.0661076 1.8086 -4.25732e-20)
(0.0726966 1.69725 -4.35445e-20)
(0.120932 1.71488 4.55937e-20)
(-0.019985 1.73384 -1.18077e-19)
(0.0524244 1.71098 8.85575e-20)
(0.0270205 1.78689 3.88076e-21)
(0.0248354 1.77563 -1.0115e-19)
(-0.0110158 1.78086 -1.49236e-20)
(0.0741957 1.78244 -1.32081e-20)
(0.0330794 1.68976 -1.0467e-19)
(0.0758186 1.69418 0)
(0.108078 1.71086 5.39894e-20)
(0.0463226 1.76036 3.89864e-20)
(0.140228 1.65003 -4.92302e-20)
(0.137545 1.61302 0)
(0.14944 1.5776 -2.23727e-19)
(0.165549 1.59674 1.59519e-19)
(0.161659 1.65202 -1.31157e-19)
(0.170655 1.66663 8.45222e-20)
(0.0530687 1.55024 0)
(0.0348095 1.68411 -9.25002e-20)
(-0.0068958 1.71757 -1.29558e-19)
(-0.00247548 1.68509 0)
(0.0290706 1.79173 1.21924e-21)
(0.0280563 1.74448 4.60632e-20)
(0.00588875 1.79194 7.96394e-21)
(0.0368772 1.7769 -1.27683e-19)
(0.00132058 1.77275 3.31897e-20)
(-0.0125859 1.67658 4.74583e-20)
(0.0383856 1.7769 0)
(-0.0502566 1.80449 0)
(0.0197108 1.77338 4.38689e-20)
(0.0234033 1.7667 -1.37087e-20)
(-0.0598937 1.78231 0)
(-0.0439481 1.75861 3.3828e-20)
(0.0479468 1.76357 -6.63578e-20)
(0.957886 0.107727 0)
(1.03775 0.0757867 -4.23845e-20)
(0.969892 0.0287338 -2.91275e-19)
(0.936475 0.0163583 0)
(0.956254 -0.0470764 0)
(1.01824 -0.0581985 -9.36947e-21)
(0.970989 -0.0658704 4.82862e-19)
(0.977036 -0.0142972 5.88053e-19)
(0.981661 0.00368716 0)
(1.02168 -0.00427806 0)
(0.985766 -0.00992362 2.89268e-19)
(0.976312 0.0280644 0)
(0.973785 0.0515732 0)
(-0.0835279 1.78421 0)
(-0.0228899 1.67978 8.78745e-21)
(-0.0333263 1.71155 1.07629e-20)
(0.0069473 1.78805 0)
(0.0954943 1.72813 2.65465e-20)
(0.0619365 1.76888 -9.04857e-21)
(0.0290528 1.76288 0)
(0.437017 1.63051 0)
(0.376059 1.59494 -2.41212e-19)
(0.38367 1.59114 0)
(0.451789 1.75405 2.72474e-19)
(0.539341 1.77562 0)
(0.503689 1.80272 -1.10438e-19)
(0.581643 1.50494 -7.83152e-21)
(0.561299 1.43561 -4.16539e-19)
(0.592983 1.42386 5.13464e-19)
(0.46922 1.42236 9.61569e-20)
(0.509821 1.4597 0)
(0.570815 1.47547 0)
(0.617224 1.41177 0)
(0.511671 1.39316 -3.46956e-19)
(0.398697 1.52146 -2.15742e-19)
(0.388329 1.48033 -4.97896e-20)
(0.460501 1.51825 4.02391e-20)
(0.370008 1.4656 0)
(0.455062 1.4465 0)
(0.42882 1.426 -9.52981e-20)
(0.407422 1.43913 0)
(0.50572 1.49342 0)
(0.517357 1.44922 -2.86609e-19)
(0.436714 1.29191 -1.90241e-20)
(0.68305 1.52179 0)
(0.602111 1.58299 4.47936e-19)
(0.657376 1.25127 -9.60011e-20)
(0.8732 1.20917 0)
(0.73277 1.12271 1.6341e-19)
(0.451851 1.44664 0)
(0.483639 1.25819 0)
(0.741855 1.50612 -1.87716e-19)
(0.705643 1.53828 -1.35991e-19)
(0.684952 1.52195 2.3867e-19)
(0.705182 1.52103 -7.27584e-20)
(0.72299 1.47213 0)
(0.690895 1.48886 9.54974e-20)
(0.764809 1.49544 -1.59764e-19)
(0.754481 1.44425 -3.39824e-21)
(0.592063 1.53815 0)
(0.600691 1.56099 -1.08553e-19)
(0.638485 1.54721 0)
(0.807235 0.176233 0)
(0.796343 0.176237 0)
(0.740511 0.208647 0)
(0.790721 0.248971 -3.10484e-19)
(0.757498 0.212978 1.74706e-19)
(0.938441 -0.0140128 -2.11311e-19)
(0.904697 0.0786774 0)
(0.863764 0.0593703 9.03054e-20)
(0.855174 0.118552 3.62948e-19)
(0.844442 0.0197582 -2.30559e-19)
(0.827448 2.30439 2.63146e-20)
(0.841619 2.16915 0)
(0.72088 2.38833 6.20414e-20)
(0.129408 2.48215 -5.25736e-20)
(0.327729 2.07953 -1.52382e-19)
(0.207373 1.48099 3.24766e-19)
(0.296639 1.57496 0)
(-0.211421 0.843912 -4.77856e-20)
(-0.0213396 1.02369 3.97376e-19)
(-0.212509 0.468842 -6.93383e-20)
(0.131648 0.471139 7.53088e-20)
(0.423978 0.532107 1.96428e-19)
(0.535506 0.517765 0)
(0.234264 0.73942 0)
(0.169339 0.711275 0)
(0.87642 0.742873 1.1015e-19)
(0.797332 0.571133 -2.81156e-19)
(0.845694 0.638813 2.43442e-19)
(0.836946 0.498625 -2.24973e-19)
(0.998818 0.589456 0)
(0.944478 0.634023 -7.18346e-20)
(0.725971 0.363268 -4.01234e-19)
(0.715441 0.336685 -4.97118e-19)
(0.631019 0.422862 3.11129e-19)
(0.671982 0.368591 -2.93468e-19)
(0.74285 0.335344 -2.39284e-19)
(0.72154 0.344075 2.96565e-19)
(1.00305 0.00281341 -3.04971e-19)
(1.02642 0.0177455 6.36427e-19)
(1.01126 0.0643824 3.80328e-19)
(1.0479 -0.0456086 -4.59892e-19)
(0.90279 -0.0092376 0)
(0.889447 0.00662242 -7.64102e-19)
(0.0810842 1.70541 2.64104e-20)
(0.00858177 1.72504 0)
(0.0930364 1.7494 1.78164e-19)
(0.0483103 1.73359 -1.60269e-19)
(0.0634095 1.72708 8.11473e-20)
(0.0856364 1.79133 0)
(0.0706525 1.78682 0)
(0.0336674 1.71119 -1.43227e-20)
(-0.00140603 1.62487 1.28456e-20)
(0.0423741 1.62675 4.23276e-21)
(-0.107671 1.75777 -2.67435e-20)
(0.0562158 1.75108 1.47318e-20)
(0.540868 1.59175 -3.09285e-19)
(0.565145 1.59319 3.26744e-19)
(0.473142 1.70254 -1.5083e-19)
(0.554574 1.62271 1.48471e-20)
(0.662859 1.70417 0)
(0.590777 1.77453 -1.029e-19)
(0.564666 1.75743 1.00491e-19)
(0.568602 1.71148 1.46753e-19)
(0.60801 1.70719 0)
(0.643735 1.6374 0)
(0.490784 1.45813 3.27596e-19)
(0.299253 1.50656 4.48157e-19)
(0.309999 1.47061 -3.052e-19)
(0.248038 1.52621 -5.34915e-20)
(0.341864 1.51929 1.09211e-19)
(0.242636 1.44953 -2.59408e-19)
(0.607776 1.44261 -2.88104e-19)
(0.721307 1.44433 0)
(0.634994 1.41685 -3.21924e-19)
(0.679426 1.46389 0)
(0.690677 1.48678 0)
(0.437545 1.85786 -1.91493e-19)
(0.534609 2.03535 -1.54287e-19)
(0.411908 2.07189 1.77557e-19)
(-0.570779 1.5307 0)
(-0.428036 1.48781 -1.47971e-19)
(0.0470937 1.60885 -2.03982e-19)
(0.258194 1.82734 0)
(-0.022633 2.14445 1.0854e-19)
(-0.338664 2.2151 0)
(0.440854 0.894939 -4.55239e-19)
(0.601232 0.927147 6.06609e-19)
(0.650393 0.719469 -5.93324e-19)
(0.326484 0.737087 -5.42162e-20)
(0.437349 0.68027 -2.17269e-19)
(0.585892 1.79578 1.15513e-19)
(0.637209 1.71312 -2.48487e-19)
(0.484095 1.8259 3.4936e-19)
(0.490538 1.72384 -2.27796e-19)
(0.616912 1.60165 -3.22538e-19)
(0.65199 1.70305 -2.43558e-20)
(0.65898 1.66224 2.51721e-19)
(0.533225 1.69379 1.83688e-20)
(0.546968 1.5882 1.37571e-19)
)
;

boundaryField
{
    wall-4
    {
        type            noSlip;
    }
    velocity-inlet-5
    {
        type            fixedValue;
        value           uniform (1 0 0);
    }
    velocity-inlet-6
    {
        type            fixedValue;
        value           uniform (0 3 0);
    }
    pressure-outlet-7
    {
        type            zeroGradient;
    }
    wall-8
    {
        type            noSlip;
    }
    frontAndBackPlanes
    {
        type            empty;
    }
}


// ************************************************************************* //
