/*--------------------------------*- C++ -*----------------------------------*\
| =========                 |                                                 |
| \\      /  F ield         | OpenFOAM: The Open Source CFD Toolbox           |
|  \\    /   O peration     | Version:  2212                                  |
|   \\  /    A nd           | Website:  www.openfoam.com                      |
|    \\/     M anipulation  |                                                 |
\*---------------------------------------------------------------------------*/
FoamFile
{
    version     2.0;
    format      ascii;
    arch        "LSB;label=32;scalar=64";
    class       volScalarField;
    location    "0.04";
    object      epsilon;
}
// * * * * * * * * * * * * * * * * * * * * * * * * * * * * * * * * * * * * * //

dimensions      [0 2 -3 0 0 0 0];

internalField   nonuniform List<scalar> 
3072
(
2051.24
1825.72
2274.25
2271.38
2223.37
1962.17
1818.18
2594.21
13542.8
34054.1
44019.3
49105.8
5551.76
5021.27
4006.57
3396.19
4118.46
6546.06
16643.2
23453.7
25132.7
32764.7
35371.4
36619.7
7875.47
6160.82
6190.32
7470.5
14920.9
20377.6
20890.6
22269.4
24782.4
27788.4
28788.6
29939.1
11069.6
8558.07
9948.45
12461.9
16943.7
18586
18867.5
21031.8
23650.6
25111.1
25912.2
26748.5
13076.9
10478.3
12592.4
13799.8
15754.9
16522.2
18610.1
21090.6
22969.3
23930.8
24501.4
25043.4
14462.2
11391.6
12759.4
13399.2
15094.8
16831.3
19223.6
21498.6
22800.6
23339.7
23650.5
23954.5
14917.2
11405.1
12353.3
13520
15817.8
18186.2
20604.7
22272.7
23090
23402.4
23503.9
23609.1
16149
11738.1
12961.1
15338.9
18692.9
21321
23175.7
24109.1
24367.2
24322.8
24205.6
24170.7
18143
13307.5
16793.3
21623.2
26073.4
28392.4
29125.2
28874
28177.7
27419.4
26784.9
26371.7
22352.6
18405.8
28451
37053.3
42351.6
43446.7
42036
39484
36827.7
34497.1
32646.9
31300.1
25820.1
34176.2
55933.5
68032
71125.6
68865.4
63245.9
56953.5
51097.1
46140.7
42199
39203.1
97124.4
97897.7
107906
110205
106236
97119
86707.6
76576.6
67489.1
59804.3
53599.9
48739.5
53321.8
55463.9
56737
56935.4
57007.1
54381
50555.8
44479.1
36971.6
28176.1
17907.1
21690
37723.9
38595.2
39391.6
40142.6
41034.4
42394.2
44928
48526.4
53365
59000.6
61723.7
72872.6
30897
31602.1
32195.4
32817
33885.9
35790.4
39045.1
44241.3
52279.1
64069.8
81032.9
115638
27419.9
28005.9
28605
29338
30488.1
32444.1
35788.7
41338.4
50438
65572.6
92615.6
146480
25481.6
25896.4
26370.6
27029.1
28114.9
30011.7
33314.5
38942
48497.1
65419.7
99329.1
172567
24241.9
24575.6
25027.7
25716.6
26859.2
28794.3
32072.5
37624.3
47243.4
64882.9
103126
196172
23783.8
24076.1
24546.1
25299.1
26512.6
28480
31729.5
37201.6
46721.4
64443.2
105463
219397
24268.1
24532.8
25029.6
25850.1
27124.2
29104.9
32272.7
37552.5
46867.1
64601.6
106902
246898
26237.3
26397.8
26839.8
27646.2
28937.3
30897
33940.9
38957.4
47949
65609.3
109162
279969
30483.6
30217.9
30452.7
31085.9
32219.6
34045.6
36864.1
41459.7
49918.2
67107.6
111389
315300
37170.4
36059.4
35832.4
36265.8
37133.5
38628.1
41011.6
44955.5
52452
68526.6
113870
357820
45322.5
43297
42442.4
42585.6
43213.7
44254.7
45941.6
48829.1
54440.1
68665.9
114701
415662
2051.28
1825.75
2274.27
2271.4
2223.38
1962.18
1818.19
2594.25
13543.1
34054.4
44019.5
49106
5551.86
5021.35
4006.62
3396.23
4118.5
6546.13
16643.4
23453.8
25132.9
32764.9
35371.5
36619.9
7875.63
6160.93
6190.42
7470.62
14921.1
20377.7
20890.6
22269.5
24782.5
27788.6
28788.8
29939.3
11069.9
8558.25
9948.61
12462
16943.7
18586
18867.6
21031.9
23650.8
25111.3
25912.4
26748.7
13077.2
10478.5
12592.6
13799.9
15754.9
16522.3
18610.3
21090.8
22969.4
23931
24501.6
25043.6
14462.4
11391.8
12759.5
13399.3
15094.9
16831.5
19223.8
21498.7
22800.8
23339.9
23650.7
23954.7
14917.3
11405.2
12353.5
13520.1
15817.9
18186.3
20604.9
22272.9
23090.2
23402.6
23504
23609.3
16149
11738.2
12961.2
15339
18693.1
21321.2
23175.8
24109.2
24367.4
24323
24205.8
24170.9
18143
13307.6
16793.4
21623.2
26073.5
28392.5
29125.3
28874.2
28177.9
27419.6
26785
26371.9
22352.5
18405.8
28451
37053.2
42351.5
43446.6
42036
39484
36827.8
34497.3
32647
31300.3
25820
34176.2
55933.4
68031.9
71125.4
68865.3
63245.8
56953.5
51097.1
46140.7
42199
39203.2
97124.4
97897.9
107906
110205
106236
97118.9
86707.5
76576.5
67489
59804.3
53599.9
48739.6
53322.1
55464.1
56737.3
56935.7
57007.4
54381.2
50556
44479.3
36971.7
28176.2
17907.1
21690.1
37724.1
38595.4
39391.8
40142.8
41034.6
42394.4
44928.2
48526.5
53365.1
59000.7
61723.9
72872.8
30897.1
31602.3
32195.6
32817.2
33886
35790.5
39045.3
44241.5
52279.3
64070
81033.1
115639
27420.1
28006.1
28605.2
29338.2
30488.3
32444.3
35788.9
41338.6
50438.2
65572.8
92615.9
146480
25481.8
25896.6
26370.8
27029.3
28115.1
30011.9
33314.6
38942.2
48497.3
65419.9
99329.4
172567
24242.1
24575.8
25027.9
25716.8
26859.4
28794.5
32072.7
37624.5
47243.7
64883.2
103127
196173
23784
24076.3
24546.3
25299.3
26512.8
28480.2
31729.7
37201.8
46721.6
64443.5
105464
219398
24268.3
24533
25029.8
25850.3
27124.4
29105.1
32272.9
37552.7
46867.3
64601.9
106902
246899
26237.4
26398
26840
27646.4
28937.5
30897.2
33941.1
38957.5
47949.2
65609.5
109163
279970
30483.8
30218.1
30452.9
31086
32219.8
34045.7
36864.2
41459.9
49918.4
67107.9
111389
315301
37170.5
36059.5
35832.6
36265.9
37133.6
38628.2
41011.7
44955.7
52452.1
68526.8
113870
357821
45322.6
43297.1
42442.4
42585.7
43213.8
44254.8
45941.7
48829.2
54440.2
68666.1
114701
415663
2051.29
1825.76
2274.3
2271.44
2223.42
1962.21
1818.21
2594.26
13543
34054.3
44019.5
49106
5551.89
5021.38
4006.65
3396.26
4118.54
6546.16
16643.4
23453.8
25132.9
32764.9
35371.5
36619.8
7875.66
6160.96
6190.46
7470.67
14921.1
20377.7
20890.7
22269.5
24782.5
27788.5
28788.7
29939.3
11069.9
8558.26
9948.65
12462.1
16943.8
18586
18867.6
21031.9
23650.7
25111.2
25912.3
26748.6
13077.2
10478.5
12592.6
13799.9
15755
16522.3
18610.3
21090.8
22969.4
23931
24501.5
25043.5
14462.4
11391.8
12759.6
13399.3
15094.9
16831.5
19223.8
21498.7
22800.8
23339.8
23650.7
23954.7
14917.4
11405.2
12353.5
13520.2
15818
18186.3
20604.9
22272.8
23090.2
23402.5
23504
23609.3
16149.2
11738.2
12961.3
15339.1
18693.1
21321.2
23175.9
24109.3
24367.4
24323
24205.8
24170.9
18143.2
13307.7
16793.4
21623.3
26073.6
28392.6
29125.4
28874.2
28177.9
27419.6
26785.1
26371.9
22352.7
18405.9
28451.1
37053.4
42351.7
43446.8
42036.2
39484.2
36827.9
34497.3
32647
31300.3
25820.2
34176.3
55933.6
68032.1
71125.7
68865.5
63246
56953.7
51097.2
46140.8
42199.1
39203.3
97124.7
97898
107907
110205
106236
97119.1
86707.7
76576.7
67489.2
59804.4
53600
48739.7
53322
55464.1
56737.2
56935.6
57007.3
54381.2
50555.9
44479.2
36971.7
28176.2
17907.1
21690
37724
38595.3
39391.7
40142.8
41034.5
42394.3
44928.1
48526.5
53365.1
59000.7
61723.8
72872.7
30897.1
31602.2
32195.6
32817.2
33886
35790.5
39045.2
44241.5
52279.3
64069.9
81033
115638
27420
28006
28605.2
29338.1
30488.3
32444.2
35788.8
41338.5
50438.2
65572.7
92615.7
146480
25481.8
25896.6
26370.8
27029.2
28115
30011.8
33314.6
38942.1
48497.2
65419.8
99329.3
172567
24242
24575.8
25027.8
25716.8
26859.3
28794.4
32072.6
37624.4
47243.6
64883.1
103126
196173
23783.9
24076.3
24546.3
25299.3
26512.7
28480.2
31729.7
37201.7
46721.6
64443.4
105464
219398
24268.3
24533
25029.8
25850.3
27124.4
29105.1
32272.8
37552.7
46867.3
64601.8
106902
246899
26237.5
26398
26840
27646.4
28937.5
30897.2
33941.1
38957.5
47949.2
65609.5
109163
279969
30483.8
30218.1
30452.9
31086
32219.8
34045.7
36864.2
41459.9
49918.3
67107.8
111389
315301
37170.5
36059.5
35832.6
36266
37133.7
38628.3
41011.7
44955.7
52452.1
68526.8
113870
357821
45322.7
43297.1
42442.5
42585.7
43213.8
44254.9
45941.7
48829.2
54440.2
68666.1
114701
415663
2051.26
1825.73
2274.25
2271.39
2223.37
1962.17
1818.18
2594.22
13542.8
34054.1
44019.2
49105.7
5551.8
5021.3
4006.59
3396.2
4118.47
6546.06
16643.2
23453.7
25132.7
32764.7
35371.3
36619.6
7875.54
6160.86
6190.35
7470.54
14920.9
20377.6
20890.6
22269.4
24782.4
27788.4
28788.6
29939.1
11069.8
8558.14
9948.49
12461.9
16943.6
18585.9
18867.4
21031.8
23650.6
25111.1
25912.2
26748.5
13077
10478.4
12592.5
13799.8
15754.9
16522.2
18610.1
21090.6
22969.3
23930.9
24501.4
25043.4
14462.3
11391.7
12759.4
13399.2
15094.8
16831.4
19223.7
21498.6
22800.7
23339.7
23650.6
23954.6
14917.2
11405.1
12353.4
13520
15817.8
18186.2
20604.7
22272.7
23090.1
23402.4
23503.9
23609.2
16149
11738.1
12961.2
15338.9
18693
21321.1
23175.7
24109.1
24367.3
24322.9
24205.7
24170.8
18143
13307.5
16793.3
21623.2
26073.4
28392.5
29125.2
28874.1
28177.8
27419.5
26785
26371.9
22352.5
18405.8
28451
37053.3
42351.5
43446.7
42036.1
39484.1
36827.8
34497.3
32647
31300.3
25820
34176.2
55933.4
68031.9
71125.5
68865.4
63245.9
56953.6
51097.2
46140.8
42199.1
39203.3
97124.5
97897.9
107906
110205
106236
97119.1
86707.7
76576.7
67489.2
59804.4
53600
48739.7
53321.7
55463.8
56737
56935.4
57007.1
54380.9
50555.7
44479
36971.6
28176.1
17907
21689.9
37723.9
38595.2
39391.6
40142.6
41034.4
42394.2
44928
48526.3
53364.9
59000.5
61723.6
72872.5
30897
31602.1
32195.4
32817
33885.9
35790.4
39045.1
44241.3
52279.1
64069.7
81032.8
115638
27419.9
28005.9
28605
29338
30488.2
32444.1
35788.7
41338.4
50438.1
65572.6
92615.5
146480
25481.7
25896.5
26370.7
27029.1
28114.9
30011.7
33314.5
38942
48497.1
65419.7
99329.1
172567
24241.9
24575.7
25027.7
25716.7
26859.2
28794.4
32072.5
37624.3
47243.5
64882.9
103126
196172
23783.8
24076.2
24546.2
25299.2
26512.7
28480.1
31729.6
37201.6
46721.4
64443.3
105463
219397
24268.2
24532.9
25029.7
25850.3
27124.3
29105
32272.8
37552.6
46867.2
64601.7
106902
246898
26237.4
26398
26839.9
27646.4
28937.4
30897.1
33941.1
38957.5
47949.1
65609.3
109162
279969
30483.8
30218
30452.8
31086
32219.7
34045.7
36864.2
41459.8
49918.3
67107.7
111389
315300
37170.5
36059.5
35832.6
36265.9
37133.6
38628.2
41011.7
44955.6
52452.1
68526.7
113870
357820
45322.6
43297.1
42442.5
42585.7
43213.8
44254.8
45941.6
48829.2
54440.1
68666
114701
415662
155103
144416
133739
125032
116601
107339
97595.2
87757.1
78360.4
69943.9
62806.5
56952.6
96394.4
97553.6
97274.6
96723.9
95543
93378
89964.2
84583.6
78126.6
71946.5
66177.7
61084.3
65656.9
67703.9
69128.6
70468.8
71732.9
72691.4
72651.4
71733.2
70093.5
67570.1
64152.6
60935.9
51846.4
53395.4
54666.6
55863.9
57110.1
58398.7
59468.6
60224
60237.8
59751
58810.8
57567.6
52795
50367.5
49175.5
48977.9
49192.4
49573.2
50155
51475.5
54679.8
63258.9
87204.5
172745
57505.6
55568.3
54391.5
53620.1
52816.6
52115.2
51593.4
51724.9
52766.6
56247.7
65913
90576.4
58797.3
57611.7
56183.3
54590.8
52724.3
50902.1
49322.3
48377.2
48346.6
49418
53279.8
61734.3
56317
54624.3
52209.8
49633.7
47122.6
45177.8
43838.9
43250.5
43371.1
44067.4
46148.4
49623.5
155103
144417
133739
125033
116601
107339
97595.3
87757.1
78360.4
69943.8
62806.5
56952.6
96394.6
97554.2
97275.1
96724.3
95543.3
93378.3
89964.4
84583.7
78126.7
71946.5
66177.8
61084.3
65657
67704.4
69129
70469.2
71733.3
72691.7
72651.7
71733.4
70093.6
67570.2
64152.6
60936
51846.6
53395.8
54666.9
55864.2
57110.4
58398.9
59468.8
60224.1
60237.9
59751.1
58810.9
57567.7
52795
50367.5
49175.6
48977.9
49192.4
49573.3
50155.1
51475.6
54679.9
63259
87204.7
172746
57505.6
55568.3
54391.5
53620.2
52816.6
52115.2
51593.5
51725
52766.6
56247.8
65913.1
90576.6
58797.4
57611.8
56183.3
54590.9
52724.4
50902.1
49322.4
48377.3
48346.7
49418.1
53279.9
61734.5
56317
54624.4
52209.8
49633.7
47122.6
45177.9
43839
43250.5
43371.2
44067.5
46148.5
49623.6
155103
144417
133740
125033
116601
107339
97595.4
87757.2
78360.6
69944
62806.7
56952.7
96394.8
97554.3
97275.2
96724.4
95543.4
93378.4
89964.5
84583.8
78126.8
71946.6
66177.9
61084.4
65657.2
67704.5
69129.1
70469.3
71733.4
72691.8
72651.7
71733.5
70093.7
67570.3
64152.7
60936.1
51846.7
53395.9
54667
55864.3
57110.5
58399
59468.9
60224.2
60238
59751.1
58810.9
57567.7
52795.1
50367.6
49175.7
48978
49192.5
49573.3
50155.1
51475.5
54679.9
63258.9
87204.6
172746
57505.7
55568.4
54391.6
53620.2
52816.6
52115.2
51593.5
51725
52766.6
56247.8
65913
90576.5
58797.4
57611.8
56183.3
54590.9
52724.4
50902.1
49322.3
48377.2
48346.6
49418.1
53279.8
61734.4
56317
54624.4
52209.8
49633.7
47122.6
45177.8
43839
43250.5
43371.1
44067.4
46148.4
49623.5
155103
144417
133739
125033
116601
107339
97595.4
87757.2
78360.5
69944
62806.7
56952.7
96394.7
97554.3
97275.1
96724.3
95543.4
93378.3
89964.4
84583.8
78126.8
71946.6
66177.8
61084.4
65657.1
67704.4
69129
70469.3
71733.3
72691.7
72651.6
71733.4
70093.6
67570.2
64152.7
60936
51846.6
53395.8
54667
55864.2
57110.4
58398.9
59468.8
60224.1
60237.9
59751.1
58810.9
57567.6
52795.1
50367.6
49175.7
48978
49192.4
49573.3
50155.1
51475.5
54679.9
63258.9
87204.5
172745
57505.7
55568.4
54391.5
53620.2
52816.6
52115.2
51593.4
51725
52766.6
56247.8
65913
90576.5
58797.4
57611.8
56183.3
54590.8
52724.4
50902.1
49322.3
48377.2
48346.6
49418
53279.8
61734.3
56317
54624.3
52209.8
49633.7
47122.5
45177.8
43838.9
43250.4
43371.1
44067.4
46148.3
49623.4
47252.7
48370.9
49479.8
50563.8
51510
52248.1
52759.9
52818.6
52048.6
50744.3
48938.7
46930.9
44193.8
45273.9
46311.5
47146.4
47745.3
48097
47891
46823.4
44994.3
42705.4
40241.8
38196.5
41565.7
42524.4
43291.8
43864.1
44233.9
44221.3
43447
42091.5
40320.8
38573.3
37117.5
36097.8
38240.9
38852.3
39373.2
39706.4
39778.9
39399.3
38618.8
37771.8
37243.4
37754.3
39895.7
42529.9
45180
42400.7
40274.1
39508.9
39003.4
39173.4
39693.5
40556
41680.7
43034
44849
46294.1
36898.6
34200
33598.5
34303.7
35156.7
36406.4
37701.1
39082.5
40446.8
41740.7
42868.8
43587.7
35266.7
30233.1
29660.8
31190.5
32672.4
34350.9
35917.6
37399.5
38669.2
39646.7
40366.7
40941.3
46524.7
28123.6
26744.4
28481.6
30149
31888.1
33440.8
34811
35833.1
36587.5
37159.4
37669
47253.1
48371.1
49480
50564
51510.2
52248.2
52760
52818.7
52048.7
50744.3
48938.8
46931
44194.1
45274
46311.6
47146.5
47745.4
48097.1
47891.1
46823.5
44994.3
42705.5
40241.9
38196.5
41565.8
42524.5
43291.9
43864.2
44233.9
44221.4
43447
42091.5
40320.9
38573.3
37117.6
36097.9
38241
38852.4
39373.3
39706.4
39778.9
39399.4
38618.8
37771.8
37243.4
37754.4
39895.8
42529.9
45180.1
42400.7
40274.1
39509
39003.5
39173.5
39693.5
40556.1
41680.7
43034.1
44849.1
46294.2
36898.7
34200
33598.5
34303.7
35156.8
36406.4
37701.1
39082.6
40446.8
41740.8
42868.8
43587.8
35266.7
30233.1
29660.9
31190.6
32672.4
34350.9
35917.7
37399.5
38669.3
39646.7
40366.7
40941.3
46524.8
28123.7
26744.5
28481.6
30149
31888.1
33440.9
34811
35833.1
36587.5
37159.4
37669
47253.2
48371.2
49480.1
50564.1
51510.2
52248.3
52760.1
52818.7
52048.7
50744.3
48938.7
46930.9
44194.1
45274.1
46311.6
47146.6
47745.4
48097.1
47891.1
46823.4
44994.3
42705.4
40241.8
38196.4
41565.8
42524.5
43291.9
43864.2
44233.9
44221.3
43447
42091.4
40320.8
38573.2
37117.5
36097.8
38240.9
38852.3
39373.2
39706.4
39778.8
39399.3
38618.7
37771.7
37243.3
37754.3
39895.7
42529.8
45180
42400.7
40274
39508.9
39003.4
39173.4
39693.5
40556
41680.7
43034
44849
46294.1
36898.6
34200
33598.4
34303.7
35156.7
36406.4
37701
39082.5
40446.8
41740.7
42868.7
43587.7
35266.7
30233.1
29660.8
31190.5
32672.3
34350.8
35917.6
37399.5
38669.2
39646.6
40366.7
40941.3
46524.7
28123.6
26744.4
28481.5
30148.9
31888.1
33440.8
34810.9
35833.1
36587.4
37159.3
37668.9
47253.1
48371.1
49480
50564
51510.1
52248.2
52760
52818.6
52048.6
50744.3
48938.7
46930.9
44194
45274
46311.5
47146.5
47745.3
48097
47891
46823.4
44994.2
42705.4
40241.8
38196.4
41565.8
42524.5
43291.8
43864.1
44233.8
44221.3
43446.9
42091.4
40320.8
38573.2
37117.4
36097.8
38240.9
38852.3
39373.2
39706.3
39778.8
39399.3
38618.7
37771.7
37243.3
37754.3
39895.7
42529.8
45180
42400.6
40274
39508.9
39003.4
39173.3
39693.4
40556
41680.5
43033.8
44848.8
46293.8
36898.6
34199.9
33598.4
34303.6
35156.7
36406.3
37701
39082.4
40446.6
41740.5
42868.6
43587.5
35266.6
30233.1
29660.8
31190.5
32672.3
34350.8
35917.5
37399.4
38669.1
39646.5
40366.6
40941.2
46524.6
28123.6
26744.4
28481.5
30148.9
31888
33440.8
34810.9
35833
36587.4
37159.3
37668.9
33552.3
33810
33886.6
33663.4
33029.8
31985.4
30610.3
29092
27560.4
25841.2
24996.4
27146.4
27494.2
27153.6
26418.7
25259
23513.6
21130.7
17984.2
13923.5
9033.26
4999.81
2801.72
1808.27
20275.6
19176.1
17555.3
15408.9
12597.1
9140.69
5228.97
2100.46
649.843
220.058
151.493
124.474
12669.8
10948.1
8753.78
6159.05
3352.53
1198.44
249.057
31.6881
20.7387
11.6121
13.8777
13.0312
5801.13
3947.65
2079.82
718.315
130.648
10.6895
9.01931
5.40468
6.13698
5.9842
6.02086
5.91023
1154.73
378.018
76.3004
3.7835
7.20966
5.37101
5.53792
5.53861
5.54567
5.56298
5.59019
5.6321
45.2166
1.43982
6.03374
5.20116
5.25908
5.29279
5.31816
5.34343
5.36371
5.38304
5.41154
5.45424
5.25658
4.85388
4.96972
5.02398
5.06196
5.09752
5.12875
5.1593
5.18502
5.21209
5.24586
5.29351
4.62963
4.67556
4.72024
4.76449
4.80682
4.84723
4.88334
4.91527
4.94337
4.97004
5.0031
5.04945
4.164
4.20359
4.24186
4.28129
4.31785
4.35451
4.38685
4.41822
4.44502
4.47263
4.50471
4.54741
3.48409
3.49223
3.49876
3.50682
3.51249
3.51738
3.51963
3.51983
3.51408
3.50355
3.49331
3.49967
3.73132
3.58609
3.60264
3.4919
3.50453
3.42232
3.43431
3.3834
3.39644
3.38349
3.39728
3.4103
96937.2
26174
23842.6
25546.7
27133.2
28718.5
30052.5
31114.5
31910.5
32508.7
32942.7
33264
75243.7
21795.6
20565
22238.6
23584.3
24793.7
25767.6
26528.1
27123.2
27493.1
27652.2
27660.7
60856.4
17891.6
17204.9
18543.2
19510.1
20317.6
20973.3
21466.2
21744.2
21783.9
21530.2
21041.4
48857.4
14213.4
13780.3
14638.3
15243.7
15732.1
16064.4
16197
16098.2
15674
14987.6
14000.8
38180.4
10741.9
10387.5
10858.9
11159.1
11299
11298.3
11012.9
10520.6
9736.46
8719.19
7402.84
28232.2
7581.47
7187.14
7412.51
7424.01
7222.26
6879.49
6307.06
5578.22
4611.93
3510.06
2276.08
19813
4778.47
4474.17
4405.89
4165.23
3724.77
3221.38
2541.58
1864.67
1117.87
551.627
156.993
12503.8
2453.17
2295.12
1894.43
1684.16
1177.92
852.886
419.235
218.419
36.4056
29.6211
1.86272
6068.25
765.56
772.844
390.133
354.347
100.977
82.9636
6.78139
11.072
3.79774
4.76139
4.5507
2242.47
95.472
106.749
20.9281
24.8676
3.17587
5.52227
3.97706
4.09457
4.0635
4.09092
4.12843
558.076
6.18916
8.75946
3.62489
4.00484
3.64793
3.52478
3.53057
3.49303
3.48181
3.47564
3.48083
957.895
6.53864
6.08791
5.14358
5.02365
4.5053
4.51813
4.09158
4.15171
3.86511
3.90472
3.70604
33552.4
33810.1
33886.7
33663.5
33029.9
31985.4
30610.3
29092
27560.5
25841.3
24996.4
27146.5
27494.3
27153.7
26418.8
25259.1
23513.7
21130.7
17984.3
13923.6
9033.3
4999.83
2801.73
1808.28
20275.7
19176.2
17555.3
15408.9
12597.2
9140.74
5229
2100.48
649.85
220.061
151.494
124.476
12669.9
10948.2
8753.83
6159.09
3352.56
1198.45
249.061
31.6892
20.7393
11.6129
13.8783
13.0319
5801.18
3947.69
2079.85
718.324
130.651
10.6895
9.01976
5.40486
6.1372
5.98445
6.02111
5.91052
1154.74
378.025
76.3027
3.78318
7.20969
5.37098
5.5379
5.53858
5.54564
5.56295
5.59017
5.63208
45.2131
1.43982
6.0337
5.20108
5.25901
5.29271
5.31808
5.34335
5.36364
5.38296
5.41147
5.45417
5.25654
4.85383
4.96967
5.02394
5.06192
5.09747
5.1287
5.15925
5.18496
5.21204
5.2458
5.29346
4.62961
4.67554
4.72022
4.76447
4.80679
4.8472
4.88331
4.91525
4.94334
4.97001
5.00307
5.04942
4.16399
4.20358
4.24185
4.28128
4.31784
4.3545
4.38684
4.41821
4.44501
4.47262
4.5047
4.5474
3.48409
3.49223
3.49876
3.50682
3.51249
3.51738
3.51963
3.51983
3.51408
3.50355
3.49331
3.49967
3.73132
3.58609
3.60264
3.4919
3.50453
3.42232
3.43431
3.38341
3.39644
3.3835
3.39728
3.41031
96937.3
26174
23842.6
25546.7
27133.2
28718.5
30052.4
31114.5
31910.5
32508.7
32942.7
33264
75243.8
21795.6
20565
22238.5
23584.3
24793.7
25767.6
26528.1
27123.2
27493.1
27652.1
27660.6
60856.4
17891.6
17204.9
18543.2
19510.1
20317.6
20973.2
21466.2
21744.2
21783.8
21530.1
21041.3
48857.3
14213.4
13780.2
14638.3
15243.7
15732.1
16064.4
16196.9
16098.2
15673.9
14987.5
14000.7
38180.4
10741.9
10387.5
10858.8
11159.1
11299
11298.3
11012.9
10520.5
9736.38
8719.12
7402.76
28232.1
7581.45
7187.12
7412.48
7423.98
7222.22
6879.44
6307.01
5578.17
4611.87
3510.01
2276.03
19812.9
4778.45
4474.15
4405.86
4165.2
3724.74
3221.35
2541.54
1864.64
1117.85
551.609
156.986
12503.8
2453.16
2295.1
1894.41
1684.14
1177.9
852.868
419.221
218.411
36.4032
29.6201
1.86281
6068.21
765.552
772.836
390.126
354.34
100.974
82.9608
6.78096
11.0716
3.79781
4.7614
4.55072
2242.45
95.4703
106.747
20.9275
24.867
3.17588
5.52222
3.97709
4.09459
4.06353
4.09094
4.12846
558.069
6.18914
8.75938
3.62491
4.00485
3.64795
3.5248
3.53059
3.49305
3.48183
3.47566
3.48085
957.88
6.53864
6.08791
5.14359
5.02366
4.50531
4.51814
4.09159
4.15172
3.86512
3.90473
3.70606
33552.3
33810
33886.6
33663.4
33029.7
31985.3
30610.2
29091.9
27560.4
25841.2
24996.4
27146.4
27494.2
27153.6
26418.6
25259
23513.6
21130.6
17984.2
13923.5
9033.23
4999.8
2801.71
1808.27
20275.6
19176.1
17555.2
15408.8
12597.1
9140.65
5228.95
2100.45
649.841
220.06
151.493
124.475
12669.8
10948.1
8753.74
6159.02
3352.51
1198.43
249.057
31.6889
20.739
11.6129
13.8783
13.0319
5801.11
3947.63
2079.81
718.308
130.648
10.6894
9.01979
5.4049
6.13723
5.98449
6.02115
5.91057
1154.71
378.013
76.3007
3.78302
7.20967
5.37102
5.53794
5.53862
5.54568
5.56299
5.59021
5.63212
45.2118
1.43978
6.0337
5.20111
5.25904
5.29275
5.31812
5.34339
5.36367
5.383
5.41151
5.45421
5.25654
4.85386
4.9697
5.02397
5.06195
5.0975
5.12873
5.15928
5.185
5.21207
5.24584
5.29349
4.62964
4.67557
4.72024
4.7645
4.80682
4.84723
4.88334
4.91528
4.94337
4.97004
5.0031
5.04945
4.16402
4.20361
4.24188
4.28131
4.31787
4.35453
4.38687
4.41824
4.44504
4.47265
4.50473
4.54743
3.48411
3.49226
3.49879
3.50685
3.51251
3.51741
3.51966
3.51986
3.51411
3.50358
3.49334
3.4997
3.73133
3.5861
3.60265
3.49192
3.50454
3.42234
3.43433
3.38342
3.39646
3.38352
3.3973
3.41033
96937.1
26173.9
23842.6
25546.7
27133.2
28718.4
30052.4
31114.5
31910.4
32508.6
32942.6
33263.9
75243.6
21795.5
20565
22238.5
23584.2
24793.6
25767.6
26528.1
27123.1
27493
27652.1
27660.6
60856.3
17891.5
17204.9
18543.2
19510
20317.5
20973.2
21466.1
21744.2
21783.8
21530.1
21041.3
48857.3
14213.3
13780.2
14638.3
15243.7
15732.1
16064.4
16196.9
16098.2
15673.9
14987.5
14000.7
38180.4
10741.9
10387.4
10858.8
11159.1
11299
11298.3
11012.9
10520.5
9736.38
8719.12
7402.76
28232.1
7581.45
7187.12
7412.48
7423.98
7222.22
6879.44
6307
5578.17
4611.87
3510.01
2276.03
19812.9
4778.45
4474.15
4405.86
4165.2
3724.74
3221.34
2541.53
1864.64
1117.84
551.609
156.986
12503.8
2453.15
2295.1
1894.41
1684.14
1177.89
852.865
419.219
218.411
36.4031
29.6203
1.86284
6068.22
765.55
772.834
390.124
354.339
100.973
82.9604
6.78093
11.0716
3.79783
4.76142
4.55073
2242.45
95.4697
106.746
20.9273
24.8669
3.17588
5.52221
3.97709
4.09459
4.06353
4.09094
4.12846
558.072
6.18912
8.75934
3.62491
4.00484
3.64794
3.5248
3.53059
3.49305
3.48183
3.47566
3.48084
957.89
6.53868
6.08789
5.1436
5.02367
4.50532
4.51815
4.09159
4.15172
3.86512
3.90473
3.70606
33552.3
33810
33886.6
33663.3
33029.7
31985.3
30610.2
29091.9
27560.4
25841.2
24996.4
27146.4
27494.2
27153.5
26418.6
25259
23513.6
21130.6
17984.2
13923.5
9033.25
4999.81
2801.72
1808.28
20275.6
19176.1
17555.2
15408.8
12597.1
9140.67
5228.96
2100.46
649.844
220.061
151.495
124.477
12669.8
10948.1
8753.75
6159.03
3352.52
1198.44
249.059
31.6897
20.7396
11.6134
13.8788
13.0325
5801.11
3947.63
2079.81
718.313
130.649
10.6898
9.01998
5.40507
6.13743
5.9847
6.02136
5.9108
1154.71
378.015
76.3015
3.78308
7.20975
5.37107
5.538
5.53868
5.54574
5.56306
5.59027
5.63219
45.2124
1.43977
6.03374
5.20114
5.25907
5.29278
5.31815
5.34342
5.36371
5.38303
5.41154
5.45424
5.25657
4.85388
4.96972
5.02399
5.06197
5.09752
5.12876
5.1593
5.18502
5.2121
5.24586
5.29352
4.62965
4.67558
4.72026
4.76451
4.80684
4.84724
4.88335
4.91529
4.94338
4.97005
5.00311
5.04946
4.16402
4.20361
4.24188
4.28131
4.31787
4.35453
4.38687
4.41824
4.44504
4.47265
4.50473
4.54743
3.48411
3.49225
3.49878
3.50684
3.51251
3.5174
3.51965
3.51985
3.5141
3.50357
3.49333
3.49969
3.73133
3.5861
3.60265
3.49191
3.50454
3.42234
3.43432
3.38342
3.39646
3.38351
3.39729
3.41032
96937
26173.9
23842.6
25546.6
27133.2
28718.4
30052.4
31114.4
31910.4
32508.6
32942.6
33264
75243.5
21795.5
20565
22238.5
23584.2
24793.6
25767.5
26528
27123.1
27493
27652.1
27660.6
60856.2
17891.5
17204.9
18543.1
19510
20317.5
20973.2
21466.1
21744.2
21783.8
21530.1
21041.4
48857.2
14213.3
13780.2
14638.3
15243.7
15732
16064.3
16196.9
16098.2
15673.9
14987.5
14000.7
38180.3
10741.8
10387.4
10858.8
11159.1
11299
11298.3
11012.9
10520.5
9736.39
8719.14
7402.79
28232
7581.43
7187.1
7412.46
7423.96
7222.21
6879.44
6307.01
5578.18
4611.89
3510.03
2276.05
19812.8
4778.43
4474.13
4405.85
4165.19
3724.74
3221.35
2541.55
1864.65
1117.86
551.618
156.99
12503.7
2453.14
2295.09
1894.41
1684.14
1177.9
852.875
419.229
218.418
36.407
29.6225
1.86375
6068.2
765.552
772.835
390.129
354.345
100.978
82.9649
6.78358
11.074
3.7997
4.76334
4.55268
2242.46
95.4737
106.75
20.9301
24.8696
3.17771
5.52407
3.97876
4.09632
4.06529
4.09274
4.13031
558.075
6.19065
8.76124
3.62629
4.00627
3.64932
3.52625
3.53202
3.4945
3.48336
3.47721
3.48243
957.888
6.53953
6.08936
5.14455
5.02469
4.50617
4.51906
4.09245
4.15259
3.86594
3.90555
3.70684
)
;

boundaryField
{
    rotor
    {
        type            epsilonWallFunction;
        blending        stepwise;
        value           nonuniform List<scalar> 
192
(
2051.24
1825.72
2274.25
2271.38
2223.37
1962.17
1818.18
2594.21
13542.8
34054.1
44019.3
49105.8
53321.8
55463.9
56737
56935.4
57007.1
54381
50555.8
44479.1
36971.6
28176.1
17907.1
21690
2051.28
1825.75
2274.27
2271.4
2223.38
1962.18
1818.19
2594.25
13543.1
34054.4
44019.5
49106
53322.1
55464.1
56737.3
56935.7
57007.4
54381.2
50556
44479.3
36971.7
28176.2
17907.1
21690.1
2051.29
1825.76
2274.3
2271.44
2223.42
1962.21
1818.21
2594.26
13543
34054.3
44019.5
49106
53322
55464.1
56737.2
56935.6
57007.3
54381.2
50555.9
44479.2
36971.7
28176.2
17907.1
21690
2051.26
1825.73
2274.25
2271.39
2223.37
1962.17
1818.18
2594.22
13542.8
34054.1
44019.2
49105.7
53321.7
55463.8
56737
56935.4
57007.1
54380.9
50555.7
44479
36971.6
28176.1
17907
21689.9
2051.24
5551.76
7875.47
11069.6
13076.9
14462.2
14917.2
16149
18143
22352.6
25820.1
97124.4
21689.9
72872.5
115638
146480
172567
196172
219397
246898
279969
315300
357820
415662
2051.28
5551.86
7875.63
11069.9
13077.2
14462.4
14917.3
16149
18143
22352.5
25820
97124.4
21690
72872.6
115638
146480
172567
196172
219397
246898
279969
315300
357820
415662
2051.29
5551.89
7875.66
11069.9
13077.2
14462.4
14917.4
16149.2
18143.2
22352.7
25820.2
97124.7
21690.1
72872.8
115639
146480
172567
196173
219398
246899
279970
315301
357821
415663
2051.26
5551.8
7875.54
11069.8
13077
14462.3
14917.2
16149
18143
22352.5
25820
97124.5
21690
72872.7
115638
146480
172567
196173
219398
246899
279969
315301
357821
415663
)
;
    }
    stator
    {
        type            epsilonWallFunction;
        blending        stepwise;
        value           nonuniform List<scalar> 
192
(
3.73132
3.58609
3.60264
3.4919
3.50453
3.42232
3.43431
3.3834
3.39644
3.38349
3.39728
3.4103
957.895
6.53864
6.08791
5.14358
5.02365
4.5053
4.51813
4.09158
4.15171
3.86511
3.90472
3.70604
3.73132
3.58609
3.60264
3.4919
3.50453
3.42232
3.43431
3.38341
3.39644
3.3835
3.39728
3.41031
957.88
6.53864
6.08791
5.14359
5.02366
4.50531
4.51814
4.09159
4.15172
3.86512
3.90473
3.70606
3.73133
3.5861
3.60265
3.49192
3.50454
3.42234
3.43433
3.38342
3.39646
3.38352
3.3973
3.41033
957.89
6.53868
6.08789
5.1436
5.02367
4.50532
4.51815
4.09159
4.15172
3.86512
3.90473
3.70606
3.73133
3.5861
3.60265
3.49191
3.50454
3.42234
3.43432
3.38342
3.39646
3.38351
3.39729
3.41032
957.888
6.53953
6.08936
5.14455
5.02469
4.50617
4.51906
4.09245
4.15259
3.86594
3.90555
3.70684
96937.2
75243.7
60856.4
48857.4
38180.4
28232.2
19813
12503.8
6068.25
2242.47
558.076
957.895
27146.4
1808.27
124.474
13.0312
5.91023
5.6321
5.45424
5.29351
5.04945
4.54741
3.49967
3.4103
96937.3
75243.8
60856.4
48857.3
38180.4
28232.1
19812.9
12503.8
6068.21
2242.45
558.069
957.88
27146.5
1808.28
124.476
13.0319
5.91052
5.63208
5.45417
5.29346
5.04942
4.5474
3.49967
3.41031
96937.1
75243.6
60856.3
48857.3
38180.4
28232.1
19812.9
12503.8
6068.22
2242.45
558.072
957.89
27146.4
1808.27
124.475
13.0319
5.91057
5.63212
5.45421
5.29349
5.04945
4.54743
3.4997
3.41033
96937
75243.5
60856.2
48857.2
38180.3
28232
19812.8
12503.7
6068.2
2242.46
558.075
957.888
27146.4
1808.28
124.477
13.0325
5.9108
5.63219
5.45424
5.29352
5.04946
4.54743
3.49969
3.41032
)
;
    }
    front
    {
        type            empty;
    }
    back
    {
        type            empty;
    }
}


// ************************************************************************* //
