/*--------------------------------*- C++ -*----------------------------------*\
| =========                 |                                                 |
| \\      /  F ield         | OpenFOAM: The Open Source CFD Toolbox           |
|  \\    /   O peration     | Version:  2212                                  |
|   \\  /    A nd           | Website:  www.openfoam.com                      |
|    \\/     M anipulation  |                                                 |
\*---------------------------------------------------------------------------*/
FoamFile
{
    version     2.0;
    format      ascii;
    arch        "LSB;label=32;scalar=64";
    class       volScalarField;
    location    "0.04";
    object      nut;
}
// * * * * * * * * * * * * * * * * * * * * * * * * * * * * * * * * * * * * * //

dimensions      [0 2 -1 0 0 0 0];

internalField   nonuniform List<scalar> 
3072
(
0.000238573
0.000514048
0.000553102
0.00055287
0.000548946
0.000526548
0.000513339
0.000577911
0.00100252
0.00136327
0.00148505
0.00154017
0.000385507
0.00111645
0.00158721
0.00177969
0.00152565
0.000887272
0.000793258
0.00140643
0.00171989
0.00275767
0.00376855
0.00525703
0.000494886
0.00183943
0.00248439
0.00259631
0.00225036
0.00207727
0.00205905
0.00292166
0.0044498
0.00653128
0.00873241
0.0108606
0.000625743
0.00289324
0.00315643
0.00274553
0.00260276
0.00262163
0.00348226
0.00564502
0.00799573
0.0106534
0.0131699
0.015396
0.000739174
0.00343244
0.00347019
0.00313814
0.00313674
0.00384275
0.0058304
0.00862435
0.0113237
0.0140561
0.0165739
0.0187943
0.000846923
0.00388552
0.00393774
0.00372033
0.00414979
0.00584404
0.0085382
0.0112719
0.0139405
0.016565
0.0189809
0.0211405
0.000941179
0.00439738
0.00477712
0.00485237
0.0059667
0.00836919
0.010938
0.0134646
0.0159488
0.0183173
0.0205566
0.022613
0.0010562
0.0055497
0.00659601
0.00748372
0.00932604
0.0114217
0.0135463
0.0156896
0.0178444
0.0198983
0.0218342
0.0236217
0.00119339
0.0075225
0.0098831
0.011848
0.0136034
0.0151957
0.0167362
0.0182794
0.0198533
0.0213914
0.0228796
0.0243024
0.0013837
0.00904284
0.0125465
0.0149529
0.0166956
0.0180298
0.0191763
0.0202489
0.0212917
0.0223312
0.0233907
0.0244848
0.00156343
0.00842944
0.0135241
0.016459
0.0183915
0.0195825
0.0206648
0.021436
0.0221382
0.0228404
0.0235821
0.0243922
0.00260819
0.00793597
0.0142327
0.0176445
0.0193185
0.0207994
0.0217356
0.0224017
0.0229336
0.0234345
0.0239648
0.0245679
0.00158305
0.00160397
0.00161615
0.00161803
0.00161871
0.00159346
0.00155519
0.0014902
0.00140114
0.00127983
0.00110036
0.000523644
0.00672896
0.00808179
0.00902815
0.00943367
0.00925345
0.00876582
0.0079255
0.00677049
0.00523906
0.00320293
0.00156631
0.000909377
0.0126935
0.0140938
0.0149706
0.0153109
0.0151243
0.0144551
0.0132569
0.0115153
0.00919536
0.0063007
0.00280835
0.00121184
0.0172812
0.0187591
0.0197862
0.020332
0.0203563
0.0198061
0.018602
0.0166381
0.0137419
0.00992517
0.00494844
0.00148005
0.0207056
0.0222744
0.023471
0.0242598
0.0245806
0.024326
0.0233451
0.0214258
0.0181999
0.0135498
0.00729103
0.00174675
0.0230402
0.0246637
0.0259899
0.0269863
0.0275948
0.0277221
0.027188
0.0256674
0.0226663
0.0174949
0.010119
0.00201982
0.0244533
0.0260726
0.0274652
0.0286146
0.029497
0.0300534
0.0300903
0.0291947
0.0266699
0.0214976
0.0131245
0.00230597
0.0252575
0.0267524
0.028102
0.0293079
0.0303951
0.0313472
0.0320188
0.0319776
0.0302802
0.0253583
0.016053
0.00262143
0.0256279
0.0268604
0.0280758
0.0292763
0.0304711
0.0317036
0.0329098
0.033757
0.033202
0.0289995
0.0187467
0.00297109
0.0255594
0.0265705
0.0276011
0.0287764
0.030074
0.0314829
0.0330192
0.0345745
0.0352401
0.0324212
0.0218859
0.00334328
0.0253432
0.0264267
0.0273316
0.0282766
0.0295743
0.0310916
0.0327469
0.0346221
0.0362082
0.0353023
0.025655
0.00375533
0.0253391
0.0264815
0.0275234
0.0283542
0.0294183
0.0308741
0.0324363
0.0342854
0.036204
0.0369555
0.0296381
0.00423457
0.000238575
0.000514051
0.000553104
0.000552871
0.000548947
0.000526549
0.000513341
0.000577914
0.00100253
0.00136328
0.00148505
0.00154018
0.00038551
0.00111645
0.00158721
0.00177968
0.00152563
0.000887264
0.000793263
0.00140644
0.0017199
0.00275769
0.00376858
0.00525706
0.00049489
0.00183943
0.00248439
0.0025963
0.00225033
0.00207726
0.00205906
0.0029217
0.00444984
0.00653135
0.00873247
0.0108607
0.000625748
0.00289324
0.00315642
0.00274552
0.00260276
0.00262164
0.00348232
0.00564509
0.00799582
0.0106534
0.01317
0.0153961
0.000739179
0.00343245
0.0034702
0.00313815
0.00313675
0.00384279
0.0058305
0.00862445
0.0113238
0.0140563
0.016574
0.0187945
0.000846927
0.00388553
0.00393776
0.00372036
0.00414984
0.00584416
0.00853833
0.011272
0.0139406
0.0165651
0.0189811
0.0211406
0.000941182
0.0043974
0.00477716
0.00485244
0.00596683
0.00836934
0.0109381
0.0134648
0.015949
0.0183174
0.0205568
0.0226131
0.00105621
0.00554972
0.00659607
0.00748382
0.00932618
0.0114218
0.0135464
0.0156897
0.0178446
0.0198985
0.0218343
0.0236218
0.00119339
0.0075225
0.00988314
0.0118481
0.0136035
0.0151958
0.0167364
0.0182795
0.0198535
0.0213915
0.0228797
0.0243025
0.00138369
0.00904284
0.0125465
0.0149529
0.0166957
0.0180299
0.0191764
0.020249
0.0212918
0.0223314
0.0233909
0.0244849
0.00156343
0.00842943
0.0135241
0.016459
0.0183915
0.0195825
0.0206648
0.0214361
0.0221383
0.0228405
0.0235822
0.0243923
0.00260819
0.00793597
0.0142326
0.0176445
0.0193185
0.0207994
0.0217356
0.0224018
0.0229337
0.0234346
0.0239649
0.024568
0.00158305
0.00160397
0.00161615
0.00161803
0.00161871
0.00159346
0.00155519
0.0014902
0.00140114
0.00127983
0.00110036
0.000523644
0.00672901
0.00808183
0.0090282
0.00943371
0.00925348
0.00876585
0.00792553
0.00677051
0.00523907
0.00320294
0.00156631
0.000909378
0.0126935
0.0140939
0.0149706
0.015311
0.0151244
0.0144551
0.0132569
0.0115154
0.00919539
0.00630071
0.00280836
0.00121185
0.0172813
0.0187592
0.0197863
0.0203321
0.0203563
0.0198061
0.0186021
0.0166381
0.0137419
0.0099252
0.00494845
0.00148006
0.0207057
0.0222745
0.0234711
0.0242599
0.0245807
0.0243261
0.0233452
0.0214259
0.0182
0.0135498
0.00729105
0.00174675
0.0230403
0.0246638
0.02599
0.0269865
0.027595
0.0277222
0.0271881
0.0256675
0.0226664
0.0174949
0.010119
0.00201982
0.0244534
0.0260728
0.0274653
0.0286148
0.0294972
0.0300535
0.0300904
0.0291948
0.02667
0.0214977
0.0131246
0.00230597
0.0252577
0.0267525
0.0281021
0.0293081
0.0303953
0.0313473
0.0320189
0.0319777
0.0302803
0.0253583
0.0160531
0.00262144
0.0256281
0.0268606
0.028076
0.0292765
0.0304713
0.0317037
0.0329099
0.0337571
0.0332021
0.0289996
0.0187467
0.00297109
0.0255595
0.0265707
0.0276012
0.0287766
0.0300741
0.031483
0.0330193
0.0345746
0.0352402
0.0324213
0.021886
0.00334329
0.0253433
0.0264269
0.0273317
0.0282767
0.0295744
0.0310918
0.0327471
0.0346223
0.0362083
0.0353024
0.025655
0.00375533
0.0253391
0.0264816
0.0275235
0.0283543
0.0294184
0.0308742
0.0324364
0.0342855
0.0362041
0.0369556
0.0296381
0.00423458
0.000238575
0.000514053
0.000553106
0.000552874
0.00054895
0.000526552
0.000513343
0.000577915
0.00100253
0.00136327
0.00148505
0.00154018
0.00038551
0.00111646
0.00158723
0.00177971
0.00152566
0.000887277
0.000793264
0.00140644
0.0017199
0.00275768
0.00376857
0.00525705
0.00049489
0.00183944
0.00248441
0.00259633
0.00225037
0.00207728
0.00205905
0.00292169
0.00444983
0.00653133
0.00873245
0.0108606
0.000625749
0.00289326
0.00315645
0.00274554
0.00260278
0.00262165
0.0034823
0.00564507
0.0079958
0.0106534
0.01317
0.0153961
0.00073918
0.00343246
0.00347022
0.00313817
0.00313676
0.00384278
0.00583047
0.00862444
0.0113238
0.0140562
0.016574
0.0187944
0.000846929
0.00388555
0.00393778
0.00372037
0.00414984
0.00584413
0.00853831
0.011272
0.0139406
0.0165651
0.018981
0.0211406
0.000941184
0.00439742
0.00477717
0.00485244
0.00596681
0.00836932
0.0109381
0.0134648
0.015949
0.0183174
0.0205568
0.0226131
0.00105621
0.00554974
0.00659609
0.00748382
0.00932617
0.0114218
0.0135464
0.0156897
0.0178446
0.0198985
0.0218343
0.0236218
0.00119339
0.00752253
0.00988317
0.0118481
0.0136035
0.0151958
0.0167364
0.0182795
0.0198535
0.0213915
0.0228797
0.0243025
0.0013837
0.00904286
0.0125465
0.0149529
0.0166957
0.0180299
0.0191764
0.020249
0.0212918
0.0223314
0.0233908
0.0244849
0.00156343
0.00842945
0.0135241
0.016459
0.0183915
0.0195826
0.0206648
0.0214361
0.0221383
0.0228405
0.0235822
0.0243923
0.00260819
0.00793597
0.0142326
0.0176445
0.0193185
0.0207994
0.0217356
0.0224018
0.0229337
0.0234346
0.0239649
0.024568
0.00158305
0.00160397
0.00161615
0.00161803
0.00161871
0.00159346
0.00155519
0.0014902
0.00140114
0.00127983
0.00110036
0.000523644
0.00672899
0.00808182
0.00902819
0.0094337
0.00925348
0.00876585
0.00792552
0.0067705
0.00523907
0.00320294
0.00156631
0.000909377
0.0126935
0.0140939
0.0149706
0.015311
0.0151244
0.0144551
0.0132569
0.0115154
0.00919538
0.00630071
0.00280836
0.00121185
0.0172813
0.0187592
0.0197862
0.0203321
0.0203563
0.0198061
0.0186021
0.0166381
0.0137419
0.00992519
0.00494845
0.00148006
0.0207056
0.0222745
0.023471
0.0242599
0.0245807
0.0243261
0.0233451
0.0214259
0.0182
0.0135498
0.00729104
0.00174675
0.0230403
0.0246638
0.02599
0.0269864
0.0275949
0.0277222
0.0271881
0.0256675
0.0226664
0.0174949
0.010119
0.00201982
0.0244534
0.0260727
0.0274653
0.0286147
0.0294971
0.0300535
0.0300904
0.0291947
0.02667
0.0214977
0.0131246
0.00230597
0.0252577
0.0267525
0.0281021
0.029308
0.0303952
0.0313473
0.0320189
0.0319777
0.0302803
0.0253583
0.0160531
0.00262144
0.0256281
0.0268606
0.028076
0.0292764
0.0304712
0.0317036
0.0329099
0.0337571
0.0332021
0.0289996
0.0187467
0.00297109
0.0255595
0.0265706
0.0276012
0.0287766
0.0300741
0.031483
0.0330193
0.0345745
0.0352402
0.0324212
0.0218859
0.00334328
0.0253433
0.0264268
0.0273317
0.0282767
0.0295744
0.0310917
0.032747
0.0346222
0.0362082
0.0353024
0.025655
0.00375533
0.0253391
0.0264815
0.0275235
0.0283543
0.0294184
0.0308741
0.0324364
0.0342855
0.036204
0.0369555
0.0296381
0.00423458
0.000238574
0.00051405
0.000553102
0.00055287
0.000548946
0.000526548
0.000513339
0.000577912
0.00100253
0.00136327
0.00148505
0.00154017
0.000385508
0.00111645
0.00158721
0.00177969
0.00152564
0.000887268
0.000793258
0.00140643
0.00171989
0.00275767
0.00376856
0.00525704
0.000494888
0.00183943
0.00248439
0.0025963
0.00225035
0.00207727
0.00205905
0.00292168
0.00444981
0.0065313
0.00873243
0.0108606
0.000625746
0.00289324
0.00315643
0.00274552
0.00260276
0.00262164
0.00348229
0.00564505
0.00799577
0.0106534
0.01317
0.015396
0.000739177
0.00343244
0.00347019
0.00313814
0.00313674
0.00384277
0.00583045
0.0086244
0.0113238
0.0140562
0.0165739
0.0187944
0.000846925
0.00388552
0.00393775
0.00372034
0.00414982
0.0058441
0.00853827
0.0112719
0.0139406
0.0165651
0.018981
0.0211405
0.00094118
0.00439739
0.00477714
0.00485241
0.00596678
0.00836928
0.0109381
0.0134647
0.0159489
0.0183174
0.0205567
0.022613
0.0010562
0.00554972
0.00659606
0.00748379
0.00932614
0.0114218
0.0135464
0.0156897
0.0178445
0.0198984
0.0218343
0.0236218
0.00119339
0.00752251
0.00988314
0.0118481
0.0136034
0.0151958
0.0167363
0.0182795
0.0198534
0.0213915
0.0228797
0.0243025
0.00138369
0.00904284
0.0125465
0.0149529
0.0166957
0.0180298
0.0191764
0.020249
0.0212918
0.0223313
0.0233908
0.0244848
0.00156343
0.00842943
0.0135241
0.016459
0.0183915
0.0195825
0.0206648
0.0214361
0.0221383
0.0228404
0.0235821
0.0243923
0.00260819
0.00793596
0.0142326
0.0176445
0.0193185
0.0207994
0.0217356
0.0224017
0.0229337
0.0234346
0.0239649
0.024568
0.00158305
0.00160397
0.00161615
0.00161803
0.00161871
0.00159346
0.00155519
0.0014902
0.00140114
0.00127983
0.00110036
0.000523643
0.00672897
0.0080818
0.00902817
0.00943368
0.00925346
0.00876583
0.00792551
0.00677049
0.00523906
0.00320293
0.00156631
0.000909376
0.0126935
0.0140938
0.0149706
0.0153109
0.0151243
0.0144551
0.0132569
0.0115154
0.00919537
0.0063007
0.00280836
0.00121184
0.0172813
0.0187591
0.0197862
0.0203321
0.0203563
0.0198061
0.018602
0.0166381
0.0137419
0.00992518
0.00494844
0.00148005
0.0207056
0.0222745
0.023471
0.0242598
0.0245807
0.0243261
0.0233451
0.0214258
0.0181999
0.0135498
0.00729103
0.00174675
0.0230403
0.0246637
0.02599
0.0269864
0.0275949
0.0277221
0.0271881
0.0256674
0.0226663
0.0174949
0.010119
0.00201982
0.0244533
0.0260727
0.0274653
0.0286147
0.0294971
0.0300535
0.0300903
0.0291947
0.02667
0.0214977
0.0131246
0.00230597
0.0252576
0.0267525
0.0281021
0.029308
0.0303952
0.0313472
0.0320188
0.0319777
0.0302803
0.0253583
0.016053
0.00262143
0.025628
0.0268605
0.0280759
0.0292764
0.0304712
0.0317036
0.0329099
0.0337571
0.0332021
0.0289995
0.0187467
0.00297109
0.0255595
0.0265706
0.0276011
0.0287765
0.0300741
0.031483
0.0330193
0.0345745
0.0352401
0.0324212
0.0218859
0.00334328
0.0253433
0.0264268
0.0273317
0.0282766
0.0295743
0.0310917
0.032747
0.0346222
0.0362082
0.0353023
0.025655
0.00375533
0.0253391
0.0264815
0.0275234
0.0283543
0.0294183
0.0308741
0.0324363
0.0342854
0.036204
0.0369555
0.0296381
0.00423457
0.0156961
0.0162832
0.0177472
0.0193021
0.020656
0.0219174
0.0227546
0.0233622
0.0238176
0.0242312
0.0246572
0.0251418
0.025343
0.0231126
0.0223942
0.0224649
0.0229089
0.0233598
0.0237927
0.0243483
0.0248497
0.0252527
0.0256454
0.026081
0.0319952
0.0294542
0.0276079
0.0265151
0.0259887
0.0257689
0.0258429
0.026002
0.0261793
0.0263938
0.0268079
0.0273088
0.0339957
0.0322378
0.030627
0.0292904
0.0284217
0.0278965
0.0276628
0.0275829
0.0277555
0.0279823
0.0283122
0.0288229
0.0258508
0.0269785
0.028059
0.0289042
0.0298655
0.0310925
0.032399
0.0339431
0.0357854
0.0379589
0.0381036
0.0175899
0.026885
0.0279527
0.0289398
0.0298387
0.0307902
0.0316559
0.032625
0.0337188
0.0351431
0.0371753
0.0407412
0.0294798
0.0282919
0.0291274
0.0299881
0.0307618
0.031526
0.0321905
0.0329704
0.0337539
0.0346929
0.0360979
0.0393767
0.0351694
0.0298577
0.030594
0.0312761
0.0319028
0.0323966
0.0328984
0.0334635
0.0339713
0.0346001
0.0353213
0.0370792
0.0360168
0.0156961
0.0162832
0.0177472
0.0193021
0.020656
0.0219174
0.0227546
0.0233622
0.0238176
0.0242313
0.0246573
0.0251418
0.025343
0.0231126
0.0223943
0.0224649
0.0229089
0.0233598
0.0237927
0.0243483
0.0248497
0.0252527
0.0256454
0.026081
0.0319952
0.0294543
0.0276079
0.0265151
0.0259887
0.0257689
0.0258429
0.026002
0.0261793
0.0263938
0.0268079
0.0273088
0.0339957
0.0322379
0.0306271
0.0292905
0.0284217
0.0278966
0.0276628
0.0275829
0.0277555
0.0279823
0.0283122
0.0288229
0.0258509
0.0269786
0.0280591
0.0289043
0.0298656
0.0310926
0.0323991
0.0339432
0.0357855
0.037959
0.0381037
0.01759
0.0268851
0.0279527
0.0289398
0.0298388
0.0307902
0.031656
0.0326251
0.0337189
0.0351432
0.0371754
0.0407413
0.0294798
0.0282919
0.0291274
0.0299882
0.0307618
0.0315261
0.0321906
0.0329704
0.033754
0.034693
0.036098
0.0393768
0.0351695
0.0298578
0.030594
0.0312762
0.0319029
0.0323966
0.0328984
0.0334635
0.0339713
0.0346002
0.0353213
0.0370793
0.0360168
0.0156962
0.0162833
0.0177473
0.0193021
0.020656
0.0219175
0.0227546
0.0233622
0.0238177
0.0242313
0.0246573
0.0251418
0.025343
0.0231127
0.0223943
0.0224649
0.0229089
0.0233598
0.0237927
0.0243483
0.0248497
0.0252527
0.0256454
0.026081
0.0319953
0.0294543
0.027608
0.0265151
0.0259887
0.025769
0.0258429
0.0260021
0.0261793
0.0263939
0.0268079
0.0273089
0.0339958
0.032238
0.0306271
0.0292905
0.0284218
0.0278966
0.0276628
0.0275829
0.0277555
0.0279823
0.0283122
0.0288229
0.0258509
0.0269786
0.0280591
0.0289043
0.0298656
0.0310925
0.0323991
0.0339432
0.0357854
0.0379589
0.0381036
0.0175899
0.0268851
0.0279527
0.0289398
0.0298387
0.0307902
0.0316559
0.0326251
0.0337188
0.0351431
0.0371753
0.0407412
0.0294798
0.0282919
0.0291274
0.0299881
0.0307618
0.0315261
0.0321905
0.0329704
0.0337539
0.034693
0.0360979
0.0393767
0.0351694
0.0298577
0.030594
0.0312761
0.0319028
0.0323966
0.0328984
0.0334635
0.0339713
0.0346001
0.0353213
0.0370792
0.0360168
0.0156961
0.0162832
0.0177472
0.0193021
0.020656
0.0219174
0.0227546
0.0233622
0.0238176
0.0242312
0.0246573
0.0251418
0.025343
0.0231126
0.0223943
0.0224649
0.0229089
0.0233598
0.0237927
0.0243483
0.0248497
0.0252527
0.0256454
0.026081
0.0319952
0.0294543
0.0276079
0.0265151
0.0259887
0.0257689
0.0258429
0.026002
0.0261793
0.0263938
0.0268079
0.0273088
0.0339957
0.0322379
0.0306271
0.0292905
0.0284217
0.0278966
0.0276628
0.0275829
0.0277555
0.0279823
0.0283122
0.0288229
0.0258508
0.0269786
0.0280591
0.0289043
0.0298656
0.0310925
0.032399
0.0339431
0.0357854
0.0379589
0.0381036
0.0175899
0.026885
0.0279527
0.0289398
0.0298387
0.0307902
0.0316559
0.032625
0.0337188
0.0351431
0.0371753
0.0407412
0.0294797
0.0282919
0.0291273
0.0299881
0.0307618
0.031526
0.0321905
0.0329703
0.0337539
0.0346929
0.0360979
0.0393767
0.0351693
0.0298577
0.0305939
0.0312761
0.0319028
0.0323966
0.0328984
0.0334634
0.0339712
0.0346001
0.0353212
0.0370792
0.0360167
0.031647
0.0305066
0.0295519
0.028919
0.0285627
0.0284254
0.0283698
0.02843
0.0287309
0.0291361
0.0298353
0.0309009
0.0301003
0.0293687
0.0287788
0.028439
0.0282305
0.0280345
0.0277944
0.027672
0.0276009
0.0276376
0.0280306
0.0290741
0.0286055
0.0280373
0.02759
0.0272379
0.0267617
0.0261611
0.0255436
0.0248165
0.023976
0.0231355
0.0226128
0.0231425
0.026759
0.0262539
0.0256174
0.0249223
0.0240047
0.0229469
0.0216903
0.0201589
0.0183874
0.0165059
0.0148379
0.0138858
0.0322266
0.0331061
0.0331811
0.0334234
0.0335924
0.0337983
0.0339924
0.0341574
0.0343215
0.0344859
0.034078
0.0331646
0.0307519
0.0332511
0.0330889
0.0331482
0.0332014
0.0332542
0.0332833
0.0332557
0.0330689
0.0326548
0.0321309
0.031211
0.025669
0.031507
0.0319593
0.0319995
0.0320241
0.0320231
0.0319679
0.0317038
0.031322
0.0309216
0.0303887
0.0294267
0.0147586
0.0285602
0.0303158
0.0304017
0.0304213
0.0303226
0.0300947
0.0297409
0.02945
0.0290468
0.0283886
0.0274809
0.0316471
0.0305067
0.029552
0.0289191
0.0285628
0.0284254
0.0283698
0.02843
0.0287309
0.0291361
0.0298353
0.0309009
0.0301004
0.0293688
0.0287788
0.028439
0.0282305
0.0280345
0.0277944
0.027672
0.0276009
0.0276376
0.0280306
0.0290741
0.0286056
0.0280373
0.02759
0.027238
0.0267617
0.0261611
0.0255436
0.0248165
0.0239761
0.0231355
0.0226128
0.0231425
0.0267591
0.026254
0.0256174
0.0249223
0.0240047
0.0229469
0.0216903
0.0201589
0.0183875
0.0165059
0.0148379
0.0138858
0.0322266
0.0331061
0.0331811
0.0334234
0.0335925
0.0337984
0.0339924
0.0341575
0.0343215
0.0344859
0.0340781
0.0331647
0.0307519
0.0332512
0.0330889
0.0331482
0.0332014
0.0332542
0.0332833
0.0332557
0.0330689
0.0326548
0.0321309
0.031211
0.025669
0.031507
0.0319593
0.0319995
0.0320241
0.0320231
0.0319679
0.0317038
0.031322
0.0309216
0.0303888
0.0294267
0.0147586
0.0285602
0.0303158
0.0304017
0.0304214
0.0303226
0.0300947
0.0297409
0.02945
0.0290468
0.0283886
0.0274809
0.0316472
0.0305067
0.029552
0.0289191
0.0285628
0.0284254
0.0283698
0.02843
0.0287309
0.0291361
0.0298353
0.0309009
0.0301004
0.0293688
0.0287788
0.028439
0.0282305
0.0280345
0.0277944
0.027672
0.0276009
0.0276376
0.0280306
0.0290741
0.0286056
0.0280373
0.02759
0.0272379
0.0267617
0.0261611
0.0255436
0.0248165
0.023976
0.0231355
0.0226128
0.0231425
0.0267591
0.026254
0.0256174
0.0249223
0.0240047
0.0229469
0.0216903
0.0201589
0.0183874
0.0165059
0.0148379
0.0138858
0.0322266
0.0331061
0.0331811
0.0334233
0.0335924
0.0337983
0.0339924
0.0341574
0.0343215
0.0344859
0.034078
0.0331646
0.0307519
0.0332511
0.0330889
0.0331482
0.0332013
0.0332542
0.0332833
0.0332557
0.0330689
0.0326548
0.0321309
0.031211
0.025669
0.031507
0.0319593
0.0319994
0.0320241
0.032023
0.0319679
0.0317038
0.031322
0.0309216
0.0303887
0.0294266
0.0147586
0.0285602
0.0303158
0.0304016
0.0304213
0.0303226
0.0300946
0.0297409
0.02945
0.0290467
0.0283886
0.0274808
0.0316471
0.0305066
0.0295519
0.0289191
0.0285628
0.0284254
0.0283697
0.02843
0.0287309
0.0291361
0.0298352
0.0309009
0.0301003
0.0293687
0.0287788
0.028439
0.0282305
0.0280345
0.0277944
0.027672
0.0276009
0.0276376
0.0280306
0.0290741
0.0286056
0.0280373
0.02759
0.0272379
0.0267617
0.0261611
0.0255436
0.0248165
0.023976
0.0231355
0.0226128
0.0231425
0.0267591
0.026254
0.0256174
0.0249223
0.0240046
0.0229469
0.0216903
0.0201589
0.0183874
0.0165059
0.0148379
0.0138858
0.0322266
0.0331061
0.033181
0.0334233
0.0335924
0.0337983
0.0339924
0.0341574
0.0343215
0.0344858
0.034078
0.0331646
0.0307519
0.0332511
0.0330888
0.0331482
0.0332013
0.0332541
0.0332833
0.0332557
0.0330688
0.0326548
0.0321308
0.0312109
0.025669
0.031507
0.0319592
0.0319994
0.0320241
0.032023
0.0319679
0.0317038
0.0313219
0.0309216
0.0303887
0.0294266
0.0147586
0.0285601
0.0303158
0.0304016
0.0304213
0.0303225
0.0300946
0.0297409
0.02945
0.0290467
0.0283885
0.0274808
0.0244072
0.0236665
0.0226973
0.0216104
0.0202789
0.0187001
0.0167943
0.0145152
0.0118695
0.00893926
0.00546072
0.002828
0.0213398
0.020294
0.019021
0.0175604
0.0158124
0.0137666
0.0113655
0.00861524
0.00549198
0.00266916
0.00123331
0.00120032
0.0176354
0.0162816
0.0146833
0.012841
0.0106823
0.00820789
0.00529351
0.00238641
0.000749331
0.000381978
0.000405646
0.000514282
0.0133429
0.0116664
0.00972832
0.00749754
0.00484168
0.00214853
0.000536467
0.000202866
0.000173855
0.000268785
0.000232935
0.000253035
0.00852177
0.00648771
0.00411927
0.00180034
0.000466956
0.000188339
0.000178425
0.000220974
0.000207861
0.000208322
0.000205053
0.000202682
0.00314303
0.00131763
0.00040248
0.000276882
0.000200798
0.000215204
0.000212206
0.000211149
0.000210963
0.000209932
0.000209104
0.000207674
0.000314198
0.000731552
0.000214727
0.000219449
0.000217861
0.000216975
0.000216523
0.00021607
0.000215709
0.000215382
0.000214932
0.000213682
0.000226404
0.000228905
0.000224464
0.000222944
0.000222288
0.000221812
0.000221495
0.000221292
0.000221257
0.000221208
0.000220852
0.000219776
0.000230592
0.000229353
0.000228262
0.000227307
0.00022649
0.000225858
0.000225401
0.000225155
0.000225099
0.000225136
0.000225044
0.000224508
0.000228008
0.000227178
0.000226374
0.000225718
0.000225149
0.00022477
0.000224576
0.000224607
0.000224806
0.000225092
0.000225172
0.000224761
0.000194047
0.000195215
0.000196438
0.000197598
0.000198923
0.000200383
0.000202064
0.000203987
0.000206366
0.000209114
0.000211862
0.000213327
6.32102e-05
6.23793e-05
6.24751e-05
6.18283e-05
6.19027e-05
6.14149e-05
6.14865e-05
6.11812e-05
6.12597e-05
6.11817e-05
6.12647e-05
6.13429e-05
0.00432254
0.0246909
0.0284499
0.0284621
0.0283991
0.0281424
0.0278623
0.0276349
0.0273294
0.0268328
0.026024
0.0251587
0.00415941
0.0226782
0.0264198
0.0260928
0.0259132
0.0256901
0.0255092
0.0252685
0.0248252
0.0241134
0.0232108
0.0222649
0.00405145
0.0207181
0.0238006
0.0234369
0.0232806
0.02313
0.0228678
0.0224529
0.0217819
0.0208582
0.0198702
0.0188011
0.00393094
0.0185302
0.0208372
0.0207077
0.0205313
0.0202188
0.019804
0.0190956
0.018203
0.0171797
0.0160509
0.0147834
0.0037748
0.0161852
0.017907
0.0177667
0.0174445
0.0169056
0.016178
0.0152978
0.0142683
0.0130839
0.0117582
0.0102488
0.00355419
0.0137881
0.015036
0.0145166
0.0139176
0.0131373
0.0122466
0.0111686
0.00999403
0.0086105
0.00703111
0.00518394
0.00328478
0.0108349
0.0118798
0.0106825
0.0101615
0.00909524
0.00807233
0.00670669
0.00528902
0.00363454
0.002112
0.000834503
0.00292694
0.0076233
0.00832407
0.00665145
0.00615133
0.00458208
0.00354363
0.00211163
0.00118196
0.000451984
0.000249642
0.000438633
0.00238692
0.00377274
0.00415942
0.00248531
0.00216802
0.00091333
0.00064842
0.000353937
0.000243926
0.000245104
0.000230941
0.000232797
0.00177572
0.000888774
0.00102755
0.000413574
0.00037653
0.000280568
0.000229042
0.00022546
0.000230858
0.000229912
0.000229975
0.000228992
0.00115683
0.000157727
0.000192582
0.000160061
0.000174156
0.00017087
0.000183808
0.000184526
0.000187404
0.000189406
0.000191221
0.000192568
0.000401735
7.62071e-05
7.44142e-05
7.03485e-05
6.97975e-05
6.73092e-05
6.7373e-05
6.51824e-05
6.55001e-05
6.39569e-05
6.41746e-05
6.30672e-05
0.0244073
0.0236666
0.0226973
0.0216105
0.0202789
0.0187002
0.0167944
0.0145153
0.0118695
0.00893927
0.00546072
0.00282801
0.0213399
0.020294
0.019021
0.0175604
0.0158125
0.0137667
0.0113655
0.00861526
0.00549199
0.00266917
0.00123332
0.00120032
0.0176355
0.0162816
0.0146834
0.012841
0.0106823
0.00820791
0.00529353
0.00238642
0.000749338
0.000381984
0.00040565
0.000514285
0.013343
0.0116664
0.00972835
0.00749757
0.00484171
0.00214855
0.000536474
0.000202872
0.000173859
0.000268789
0.00023294
0.00025304
0.00852181
0.00648774
0.0041193
0.00180036
0.000466965
0.000188345
0.000178423
0.000220975
0.000207863
0.000208324
0.000205056
0.000202685
0.00314306
0.00131765
0.000402488
0.000276898
0.000200797
0.000215203
0.000212205
0.000211148
0.000210963
0.000209931
0.000209104
0.000207674
0.000314186
0.000731517
0.000214725
0.000219449
0.00021786
0.000216974
0.000216522
0.000216069
0.000215708
0.000215381
0.000214931
0.000213681
0.000226403
0.000228904
0.000224463
0.000222943
0.000222288
0.000221811
0.000221495
0.000221292
0.000221256
0.000221208
0.000220851
0.000219775
0.000230591
0.000229353
0.000228261
0.000227306
0.000226489
0.000225857
0.000225401
0.000225154
0.000225099
0.000225135
0.000225044
0.000224507
0.000228008
0.000227177
0.000226374
0.000225718
0.000225149
0.000224769
0.000224576
0.000224607
0.000224806
0.000225092
0.000225172
0.000224761
0.000194046
0.000195215
0.000196438
0.000197598
0.000198923
0.000200383
0.000202064
0.000203987
0.000206366
0.000209114
0.000211862
0.000213327
6.32102e-05
6.23793e-05
6.24751e-05
6.18283e-05
6.19027e-05
6.14149e-05
6.14865e-05
6.11812e-05
6.12597e-05
6.11817e-05
6.12647e-05
6.13429e-05
0.00432254
0.0246909
0.0284499
0.0284621
0.0283991
0.0281424
0.0278623
0.0276349
0.0273294
0.0268328
0.026024
0.0251587
0.00415941
0.0226782
0.0264197
0.0260928
0.0259132
0.0256901
0.0255092
0.0252685
0.0248252
0.0241134
0.0232108
0.0222649
0.00405145
0.0207181
0.0238006
0.0234369
0.0232806
0.02313
0.0228678
0.0224529
0.0217818
0.0208582
0.0198701
0.018801
0.00393093
0.0185301
0.0208372
0.0207077
0.0205313
0.0202188
0.019804
0.0190956
0.0182029
0.0171796
0.0160508
0.0147834
0.0037748
0.0161852
0.0179069
0.0177666
0.0174445
0.0169056
0.0161779
0.0152978
0.0142682
0.0130839
0.0117581
0.0102487
0.00355419
0.0137881
0.015036
0.0145165
0.0139176
0.0131372
0.0122466
0.0111686
0.00999396
0.00861043
0.00703104
0.00518387
0.00328477
0.0108349
0.0118798
0.0106824
0.0101614
0.00909519
0.00807227
0.00670662
0.00528895
0.00363447
0.00211194
0.000834477
0.00292693
0.00762328
0.00832404
0.0066514
0.00615129
0.00458203
0.00354357
0.00211157
0.00118193
0.000451957
0.000249644
0.000438614
0.00238691
0.00377271
0.00415939
0.00248527
0.00216798
0.000913309
0.000648404
0.000353938
0.000243924
0.000245103
0.000230942
0.000232797
0.00177572
0.000888764
0.00102753
0.000413569
0.000376525
0.000280567
0.000229042
0.000225461
0.000230858
0.000229912
0.000229975
0.000228993
0.00115682
0.000157726
0.000192582
0.000160061
0.000174156
0.00017087
0.000183809
0.000184526
0.000187404
0.000189406
0.000191222
0.000192569
0.000401732
7.62072e-05
7.44142e-05
7.03486e-05
6.97975e-05
6.73093e-05
6.73731e-05
6.51824e-05
6.55002e-05
6.39569e-05
6.41747e-05
6.30673e-05
0.0244073
0.0236665
0.0226973
0.0216104
0.0202789
0.0187001
0.0167943
0.0145152
0.0118694
0.00893925
0.00546072
0.002828
0.0213398
0.020294
0.019021
0.0175604
0.0158124
0.0137666
0.0113655
0.00861523
0.00549197
0.00266915
0.00123331
0.00120032
0.0176355
0.0162816
0.0146833
0.012841
0.0106822
0.00820788
0.00529351
0.00238641
0.000749331
0.000381982
0.000405649
0.000514284
0.0133429
0.0116664
0.00972831
0.00749753
0.00484167
0.00214853
0.000536472
0.000202872
0.000173861
0.000268787
0.00023294
0.00025304
0.00852176
0.00648769
0.00411925
0.00180033
0.000466959
0.000188344
0.000178427
0.000220976
0.000207864
0.000208325
0.000205056
0.000202686
0.003143
0.00131762
0.000402482
0.000276903
0.000200798
0.000215203
0.000212206
0.000211148
0.000210963
0.000209932
0.000209105
0.000207675
0.000314182
0.000731531
0.000214726
0.000219449
0.00021786
0.000216975
0.000216522
0.00021607
0.000215709
0.000215382
0.000214931
0.000213681
0.000226404
0.000228904
0.000224464
0.000222943
0.000222288
0.000221812
0.000221495
0.000221292
0.000221256
0.000221208
0.000220852
0.000219776
0.000230591
0.000229353
0.000228262
0.000227307
0.00022649
0.000225858
0.000225401
0.000225155
0.000225099
0.000225136
0.000225044
0.000224508
0.000228008
0.000227178
0.000226374
0.000225718
0.000225149
0.00022477
0.000224576
0.000224607
0.000224807
0.000225092
0.000225173
0.000224761
0.000194047
0.000195215
0.000196439
0.000197598
0.000198924
0.000200383
0.000202065
0.000203987
0.000206367
0.000209114
0.000211863
0.000213327
6.32103e-05
6.23794e-05
6.24752e-05
6.18284e-05
6.19028e-05
6.1415e-05
6.14866e-05
6.11813e-05
6.12598e-05
6.11819e-05
6.12648e-05
6.1343e-05
0.00432254
0.0246908
0.0284499
0.0284621
0.0283991
0.0281424
0.0278623
0.0276349
0.0273294
0.0268328
0.026024
0.0251587
0.00415941
0.0226782
0.0264197
0.0260927
0.0259132
0.0256901
0.0255092
0.0252684
0.0248252
0.0241134
0.0232107
0.0222648
0.00405145
0.0207181
0.0238005
0.0234368
0.0232806
0.02313
0.0228678
0.0224528
0.0217818
0.0208582
0.0198701
0.018801
0.00393093
0.0185301
0.0208371
0.0207077
0.0205313
0.0202188
0.019804
0.0190955
0.0182029
0.0171796
0.0160508
0.0147834
0.00377479
0.0161852
0.0179069
0.0177666
0.0174445
0.0169055
0.0161779
0.0152977
0.0142682
0.0130838
0.0117581
0.0102487
0.00355419
0.0137881
0.015036
0.0145165
0.0139176
0.0131372
0.0122466
0.0111686
0.00999396
0.00861043
0.00703104
0.00518387
0.00328477
0.0108349
0.0118798
0.0106824
0.0101614
0.00909518
0.00807225
0.00670661
0.00528894
0.00363447
0.00211194
0.00083448
0.00292694
0.00762327
0.00832403
0.00665139
0.00615128
0.00458202
0.00354356
0.00211156
0.00118192
0.00045195
0.000249649
0.000438611
0.00238692
0.00377271
0.00415938
0.00248527
0.00216798
0.000913305
0.000648401
0.000353938
0.000243924
0.000245104
0.000230942
0.000232797
0.00177572
0.00088876
0.00102753
0.000413568
0.000376524
0.000280567
0.000229042
0.000225461
0.000230858
0.000229913
0.000229976
0.000228993
0.00115682
0.000157726
0.000192581
0.000160061
0.000174156
0.00017087
0.000183809
0.000184526
0.000187404
0.000189406
0.000191221
0.000192568
0.000401734
7.62073e-05
7.44142e-05
7.03486e-05
6.97976e-05
6.73093e-05
6.73731e-05
6.51825e-05
6.55002e-05
6.39569e-05
6.41747e-05