/*--------------------------------*- C++ -*----------------------------------*\
| =========                 |                                                 |
| \\      /  F ield         | OpenFOAM: The Open Source CFD Toolbox           |
|  \\    /   O peration     | Version:  2212                                  |
|   \\  /    A nd           | Website:  www.openfoam.com                      |
|    \\/     M anipulation  |                                                 |
\*---------------------------------------------------------------------------*/
FoamFile
{
    version     2.0;
    format      ascii;
    arch        "LSB;label=32;scalar=64";
    class       volVectorField;
    location    "0.04";
    object      U;
}
// * * * * * * * * * * * * * * * * * * * * * * * * * * * * * * * * * * * * * //

dimensions      [0 1 -1 0 0 0 0];

internalField   nonuniform List<vector> 
3072
(
(1.3533 21.9142 0)
(1.80792 19.2476 0)
(3.15682 18.0184 5.9964e-19)
(4.55548 16.6417 -8.78964e-15)
(5.77848 16.0723 1.40842e-14)
(6.97387 15.5204 -7.04899e-15)
(7.75906 15.3641 -3.27135e-15)
(9.64163 17.1882 -1.55159e-14)
(17.1814 15.3002 2.57262e-14)
(28.6358 14.8463 -9.68989e-15)
(32.5257 19.5622 6.58098e-15)
(35.0849 21.3663 3.05637e-15)
(-4.68927 25.5608 -3.83768e-16)
(-2.66401 22.4845 -2.93323e-15)
(0.450579 22.4177 1.48466e-15)
(3.45296 21.9858 0)
(5.90468 22.2085 5.99356e-15)
(8.99455 23.6274 -9.1498e-15)
(15.2499 23.9963 0)
(24.2058 25.6529 0)
(29.9501 26.4345 0)
(32.0814 26.3357 7.58832e-18)
(32.6814 27.274 -1.35881e-14)
(33.3169 27.2298 4.4078e-18)
(-4.23665 28.7815 3.50443e-16)
(-1.71384 25.5682 0)
(2.81162 26.02 0)
(7.07799 25.6973 -7.81037e-15)
(12.0654 26.2412 5.25309e-15)
(18.9599 27.4874 -7.93214e-15)
(26.2902 28.3931 1.0491e-14)
(31.0991 28.5905 0)
(33.3469 27.9307 0)
(34.1981 26.9158 -3.79176e-15)
(34.3411 26.3475 -3.46022e-15)
(34.768 25.655 9.96646e-15)
(-5.74551 32.2588 -1.29363e-15)
(-1.59094 29.9983 -2.40761e-15)
(4.26385 31.1567 2.35269e-15)
(10.3489 31.0307 -2.37341e-15)
(17.3434 31.4918 9.54478e-15)
(24.2426 31.6123 -9.46428e-15)
(29.3314 30.9962 -4.5384e-15)
(31.7427 29.9228 -1.24122e-14)
(32.8934 28.5351 -3.30039e-18)
(33.3762 27.3894 6.51476e-15)
(33.564 26.4888 6.14716e-15)
(33.8793 25.6022 -5.84011e-15)
(-3.15238 34.7118 0)
(0.887858 33.9559 1.09607e-15)
(7.26449 35.34 -2.15741e-15)
(14.0278 35.2822 4.34588e-15)
(20.999 35.076 4.69794e-18)
(26.4998 33.9935 4.18222e-15)
(29.5885 32.3957 3.83403e-15)
(31.007 30.6442 3.52863e-15)
(31.6757 29.0242 -6.54883e-15)
(32.01 27.5932 6.07752e-15)
(32.2495 26.391 -8.52542e-15)
(32.5588 25.2917 1.07546e-14)
(-2.00351 37.5315 -1.10556e-15)
(2.92976 37.5593 1.00891e-15)
(9.55549 38.874 3.96279e-15)
(16.1467 38.4811 0)
(22.2505 37.3622 -7.77673e-15)
(26.3159 35.3469 7.3558e-15)
(28.523 33.1387 0)
(29.5951 31.0904 -6.27442e-15)
(30.2382 29.2274 5.83296e-15)
(30.6488 27.6083 0)
(30.9812 26.2214 2.97818e-18)
(31.3334 24.982 4.91695e-15)
(1.1113 39.6133 0)
(5.42579 40.9556 -1.85867e-15)
(11.4321 41.6701 1.81258e-15)
(17.0798 40.875 0)
(21.9257 38.8904 -3.44858e-15)
(25.0542 36.3216 5.37645e-18)
(26.9117 33.7611 6.02548e-15)
(27.9956 31.453 5.64513e-15)
(28.7264 29.4216 -5.31268e-15)
(29.2641 27.6503 5.03384e-15)
(29.7176 26.1119 -4.79042e-15)
(30.154 24.7468 -1.3769e-14)
(3.16633 42.0139 0)
(7.31427 43.8802 1.68882e-15)
(12.3235 43.8841 -3.225e-15)
(16.8223 42.6603 3.13269e-15)
(20.6802 40.1402 0)
(23.4141 37.2492 -5.66527e-15)
(25.2244 34.4241 5.38276e-15)
(26.4226 31.8991 1.41427e-18)
(27.2953 29.6889 -9.76933e-15)
(27.974 27.7613 -4.67767e-15)
(28.5461 26.0781 -3.04967e-18)
(29.0659 24.5873 8.6848e-15)
(5.93934 43.6996 0)
(8.87182 46.3981 -1.52501e-15)
(12.5144 45.4885 -2.83476e-15)
(15.9698 43.9709 -2.69871e-15)
(19.1458 41.2407 5.18252e-15)
(21.6811 38.1854 0)
(23.548 35.1798 0)
(24.9112 32.4572 0)
(25.9527 30.0582 0)
(26.7767 27.9612 4.37447e-15)
(27.4579 26.1255 -4.25306e-15)
(28.0474 24.5015 4.14048e-15)
(7.2373 46.6274 0)
(9.30304 48.3535 1.33864e-15)
(11.8104 46.4317 -3.91147e-18)
(14.6292 44.5094 2.39773e-15)
(17.3871 41.696 2.33074e-15)
(19.8199 38.6341 -4.5214e-15)
(21.7904 35.6063 0)
(23.3465 32.8116 -2.11169e-18)
(24.5781 30.3087 -1.26867e-14)
(25.5586 28.0965 0)
(26.3504 26.1439 8.12775e-15)
(27.0043 24.4092 -3.98222e-15)
(9.96192 46.9273 0)
(8.87041 48.0609 1.25594e-15)
(10.3256 45.3397 4.60549e-15)
(12.6992 43.1226 -4.43437e-15)
(15.218 40.5101 -6.47236e-15)
(17.6544 37.7552 1.05182e-14)
(19.7888 35.0143 -1.86875e-18)
(21.5654 32.4172 -4.06722e-15)
(23.0112 30.0241 4.00298e-15)
(24.1681 27.8573 -7.91307e-15)
(25.085 25.9056 -1.17008e-14)
(25.8102 24.1458 1.15385e-14)
(4.62242 43.9004 -6.58627e-16)
(6.48171 43.1384 -4.74208e-15)
(7.74776 40.2797 1.08875e-15)
(10.0932 38.5229 0)
(12.6975 36.7902 0)
(15.2625 34.8881 3.74064e-18)
(17.5778 32.8775 1.16882e-14)
(19.5627 30.8327 7.69273e-15)
(21.2112 28.8387 0)
(22.5399 26.9465 7.54858e-15)
(23.5824 25.1737 0)
(24.3774 23.5299 6.01533e-18)
(38.4071 21.7353 -2.15302e-14)
(40.4379 21.5105 9.32625e-15)
(42.1695 20.5325 -9.42887e-15)
(42.836 19.3117 -3.19189e-15)
(42.9224 17.8476 -3.15159e-15)
(42.2514 16.1594 0)
(40.8548 14.3959 0)
(38.621 12.5866 6.17288e-15)
(35.633 10.7852 -6.22873e-15)
(31.7849 8.79002 0)
(26.6251 5.24218 0)
(24.6819 -0.587018 -4.20731e-16)
(34.3695 27.6164 8.38805e-15)
(35.2808 27.2633 0)
(36.394 26.5516 -1.03236e-17)
(37.3442 25.4149 4.07331e-15)
(38.1921 23.8514 2.02385e-15)
(38.5695 22.2629 8.23436e-15)
(38.4418 20.6855 -1.26603e-14)
(37.7564 19.289 2.19968e-15)
(36.5654 18.2049 0)
(34.2587 17.2591 0)
(31.037 15.8685 0)
(31.5637 11.4718 -4.67874e-23)
(35.3025 25.0267 3.22415e-15)
(35.8659 24.3033 -9.5516e-15)
(36.4859 23.4916 3.16959e-15)
(36.9774 22.6137 6.35443e-15)
(37.2982 21.7267 -6.36793e-15)
(37.3449 20.8657 0)
(37.1083 20.1452 0)
(36.5683 19.6477 -1.9602e-18)
(35.8032 19.4761 1.84339e-15)
(34.3391 19.4649 0)
(32.0129 19.2986 0)
(33.6578 18.8915 0)
(34.1981 24.7758 3.7004e-18)
(34.5427 23.9667 8.24401e-15)
(34.9217 23.1444 5.41773e-15)
(35.2748 22.3257 -5.35742e-15)
(35.5504 21.5487 0)
(35.6935 20.8844 2.71315e-15)
(35.6705 20.4023 0)
(35.4974 20.1789 4.31838e-15)
(35.1725 20.3072 -1.41561e-15)
(34.444 20.9444 0)
(32.4712 21.8391 -9.27993e-16)
(35.7802 22.8546 -1.19333e-15)
(32.8879 24.2846 -5.13218e-15)
(33.255 23.3491 0)
(33.6452 22.4653 0)
(34.0189 21.6503 0)
(34.3468 20.94 0)
(34.6097 20.3836 -4.61783e-15)
(34.7831 20.0772 -1.53804e-18)
(34.8772 20.0438 -2.41654e-15)
(34.9391 20.4183 0)
(34.791 21.3413 -1.38297e-15)
(33.5638 22.8757 8.53375e-16)
(37.7861 25.433 1.09995e-15)
(31.701 23.863 -2.76476e-18)
(32.0959 22.8449 -9.11684e-15)
(32.5093 21.9143 4.43751e-15)
(32.9225 21.0827 2.72531e-20)
(33.3225 20.3798 2.55403e-18)
(33.7036 19.8495 6.44018e-15)
(34.0761 19.5522 -1.71281e-18)
(34.4577 19.5532 -6.72379e-15)
(34.8648 19.9652 -2.39273e-15)
(35.3368 20.9423 1.34482e-15)
(34.768 22.8934 -1.60443e-15)
(39.4962 26.3145 -5.10363e-16)
(30.5863 23.5209 1.32717e-14)
(31.0276 22.4118 4.28845e-15)
(31.4779 21.4089 0)
(31.9342 20.5192 0)
(32.3999 19.7659 2.38216e-18)
(32.8872 19.1858 -3.99022e-15)
(33.4224 18.829 5.98924e-15)
(34.0442 18.7557 -1.40733e-18)
(34.7882 19.0708 2.13214e-15)
(35.7468 19.9641 0)
(35.9614 21.9003 -2.26998e-18)
(40.9443 26.1943 4.75154e-16)
(29.5547 23.251 -4.20962e-15)
(30.0298 22.0425 -4.09356e-15)
(30.4996 20.9499 4.00016e-15)
(30.9743 19.9737 -3.91408e-15)
(31.472 19.1302 7.47059e-20)
(32.0219 18.4472 7.56671e-15)
(32.6705 17.9618 -3.74175e-15)
(33.4824 17.7251 1.87801e-15)
(34.5215 17.8277 0)
(35.9508 18.4702 1.06153e-15)
(36.9642 20.1811 6.42948e-16)
(41.9328 24.7028 -1.77563e-15)
(28.5711 23.0475 4.0407e-15)
(29.0535 21.729 -3.95152e-15)
(29.5098 20.5324 -3.86675e-15)
(29.9615 19.4493 -7.5819e-15)
(30.4408 18.487 7.42867e-15)
(30.9936 17.6621 -7.27954e-15)
(31.6884 16.9959 0)
(32.6192 16.5211 -1.76586e-15)
(33.8886 16.2994 0)
(35.7314 16.5171 0)
(37.59 17.7625 0)
(42.4783 21.9804 1.64672e-15)
(27.5449 22.8518 3.90596e-15)
(28.0066 21.4284 -7.67216e-15)
(28.4138 20.1283 7.53522e-15)
(28.7977 18.933 7.3899e-15)
(29.2033 17.8414 3.6169e-15)
(29.693 16.8563 0)
(30.3588 15.9778 0)
(31.3197 15.213 3.3802e-15)
(32.7217 14.5773 0)
(34.8792 14.211 -8.83363e-16)
(37.3879 14.6036 5.26932e-16)
(42.3017 17.6937 -2.30819e-15)
(26.3571 22.545 -7.56888e-15)
(26.7751 21.0528 7.42804e-15)
(27.0973 19.6774 -7.3089e-15)
(27.3704 18.3874 -1.79832e-14)
(27.6535 17.1776 -2.60416e-18)
(28.0231 16.0386 1.29352e-18)
(28.5942 14.9471 -3.3573e-15)
(29.4951 13.8771 -3.26535e-15)
(30.9124 12.779 0)
(33.22 11.7387 2.46126e-15)
(36.0361 10.837 4.80732e-16)
(41.1381 11.4576 -4.47954e-19)
(24.9072 21.9932 -5.87782e-18)
(25.2513 20.4963 0)
(25.4505 19.0953 0)
(25.5711 17.7511 3.47316e-15)
(25.6946 16.459 1.02447e-14)
(25.9127 15.1975 -3.34058e-15)
(26.3551 13.9261 -2.1526e-18)
(27.1312 12.5879 -1.58942e-15)
(28.4488 11.0558 -1.54871e-15)
(30.5736 9.318 -1.54643e-15)
(33.8453 6.83592 0)
(38.2761 -0.676659 6.30938e-16)
(21.9142 -1.35328 -4.42566e-16)
(19.2476 -1.8079 0)
(18.0183 -3.15682 -5.99638e-19)
(16.6417 -4.55548 0)
(16.0723 -5.77848 7.04204e-15)
(15.5204 -6.97387 -7.04899e-15)
(15.3641 -7.75905 0)
(17.1882 -9.64167 -1.24129e-14)
(15.3002 -17.1816 2.25105e-14)
(14.8464 -28.6359 -1.61629e-14)
(19.5622 -32.5257 -3.29487e-15)
(21.3663 -35.0849 -3.05637e-15)
(25.5608 4.68929 -1.91812e-15)
(22.4845 2.66403 -1.4663e-15)
(22.4177 -0.450583 4.45157e-15)
(21.9858 -3.45297 0)
(22.2085 -5.90469 -5.99357e-15)
(23.6274 -8.99458 6.099e-15)
(23.9964 -15.25 0)
(25.6529 -24.2059 5.60469e-15)
(26.4345 -29.9501 -1.52039e-14)
(26.3358 -32.0814 9.51542e-15)
(27.274 -32.6814 9.05493e-15)
(27.2299 -33.317 -1.29892e-14)
(28.7815 4.23668 3.50443e-16)
(25.5682 1.71386 0)
(26.02 -2.81163 -2.61505e-15)
(25.6973 -7.07802 0)
(26.2412 -12.0655 0)
(27.4875 -18.96 -5.28429e-15)
(28.3931 -26.2903 2.09872e-14)
(28.5905 -31.0991 -1.49786e-14)
(27.9307 -33.3469 4.02108e-15)
(26.9158 -34.1981 0)
(26.3475 -34.3411 6.92494e-15)
(25.655 -34.768 -3.32551e-15)
(32.2588 5.74552 -1.29469e-15)
(29.9983 1.59092 1.20438e-15)
(31.1567 -4.26389 2.3514e-15)
(31.0307 -10.349 4.74353e-15)
(31.4919 -17.3435 -4.77143e-15)
(31.6123 -24.2427 -4.72728e-15)
(30.9962 -29.3314 0)
(29.9228 -31.7427 0)
(28.5351 -32.8934 3.48267e-15)
(27.3894 -33.3761 0)
(26.4888 -33.564 4.74656e-18)
(25.6022 -33.8793 2.91815e-15)
(34.7118 3.15236 1.79324e-15)
(33.9559 -0.887902 -1.09554e-15)
(35.34 -7.26456 -2.15741e-15)
(35.2823 -14.0279 0)
(35.0761 -20.9991 0)
(33.9935 -26.4998 4.18936e-15)
(32.3958 -29.5885 0)
(30.6443 -31.007 -7.0649e-15)
(29.0242 -31.6756 -3.27389e-15)
(27.5933 -32.01 6.0775e-15)
(26.391 -32.2495 -8.52539e-15)
(25.2917 -32.5588 5.37519e-15)
(37.5315 2.00346 -7.30967e-19)
(37.5594 -2.92982 -1.008e-15)
(38.874 -9.55556 1.97983e-15)
(38.4811 -16.1468 2.33767e-18)
(37.3622 -22.2505 3.88844e-15)
(35.3469 -26.3159 -7.35364e-15)
(33.1387 -28.523 6.69638e-15)
(31.0905 -29.5951 6.33237e-18)
(29.2274 -30.2382 0)
(27.6083 -30.6488 0)
(26.2214 -30.9812 1.03177e-14)
(24.982 -31.3334 7.29465e-19)
(39.6133 -1.11135 -1.02815e-15)
(40.9556 -5.42585 -9.29992e-16)
(41.6701 -11.4322 0)
(40.875 -17.0798 -3.5741e-15)
(38.8903 -21.9257 3.45043e-15)
(36.3215 -25.0542 9.70089e-15)
(33.7611 -26.9116 6.03151e-15)
(31.453 -27.9955 8.40598e-18)
(29.4216 -28.7264 -1.06312e-14)
(27.6503 -29.2641 5.02999e-15)
(26.1119 -29.7176 4.79755e-15)
(24.7468 -30.154 3.05349e-18)
(42.0139 -3.16638 -6.41726e-19)
(43.8802 -7.31431 1.68882e-15)
(43.884 -12.3235 0)
(42.6603 -16.8223 -3.13268e-15)
(40.1402 -20.6802 -2.9879e-15)
(37.2491 -23.4141 5.78035e-18)
(34.4241 -25.2244 -1.07586e-14)
(31.8991 -26.4226 4.31323e-18)
(29.6889 -27.2953 -2.76973e-18)
(27.7613 -27.974 4.68031e-15)
(26.0781 -28.5461 -4.49224e-15)
(24.5873 -29.0659 2.45404e-18)
(43.6996 -5.93937 -4.46278e-16)
(46.3981 -8.87185 7.60861e-16)
(45.4885 -12.5144 -4.25083e-15)
(43.9709 -15.9698 2.69871e-15)
(41.2407 -19.1458 0)
(38.1854 -21.6811 0)
(35.1798 -23.548 4.8221e-15)
(32.4572 -24.9112 9.32635e-15)
(30.0582 -25.9527 -4.5129e-15)
(27.9612 -26.7767 -4.37445e-15)
(26.1255 -27.4579 -4.25045e-15)
(24.5015 -28.0474 0)
(46.6274 -7.23731 -8.27762e-16)
(48.3535 -9.30306 2.00829e-15)
(46.4316 -11.8104 4.97294e-15)
(44.5093 -14.6292 0)
(41.696 -17.3871 4.65221e-15)
(38.634 -19.8199 0)
(35.6063 -21.7904 3.21358e-18)
(32.8116 -23.3465 -4.31244e-15)
(30.3087 -24.5781 4.2321e-15)
(28.0965 -25.5586 0)
(26.1439 -26.3504 0)
(24.4092 -27.0043 -7.96811e-15)
(46.9273 -9.96192 2.19601e-23)
(48.0609 -8.87042 1.25594e-15)
(45.3397 -10.3256 3.51645e-18)
(43.1225 -12.6992 -4.44057e-15)
(40.51 -15.218 -2.15517e-15)
(37.7552 -17.6544 -2.10357e-15)
(35.0143 -19.7888 -4.12643e-15)
(32.4172 -21.5654 -1.21882e-14)
(30.0241 -23.0112 -4.00298e-15)
(27.8573 -24.1681 -7.91306e-15)
(25.9056 -25.085 7.80641e-15)
(24.1458 -25.8102 7.68647e-15)
(43.9004 -4.62241 -1.31679e-15)
(43.1384 -6.48172 -5.92068e-16)
(40.2797 -7.74777 2.94558e-18)
(38.5229 -10.0932 4.19908e-15)
(36.7902 -12.6975 0)
(34.8881 -15.2625 -3.96658e-15)
(32.8774 -17.5778 3.89375e-15)
(30.8327 -19.5627 3.84167e-15)
(28.8387 -21.2112 -1.14347e-14)
(26.9465 -22.5399 7.54858e-15)
(25.1737 -23.5824 -7.47728e-15)
(23.5299 -24.3774 0)
(21.7354 -38.4072 9.22188e-15)
(21.5105 -40.4379 -2.48685e-14)
(20.5325 -42.1695 6.266e-15)
(19.3117 -42.836 1.59052e-14)
(17.8476 -42.9224 -1.57348e-14)
(16.1594 -42.2514 3.11549e-15)
(14.3959 -40.8548 -1.74059e-18)
(12.5866 -38.621 -3.08474e-15)
(10.7852 -35.633 -6.22873e-15)
(8.79002 -31.7849 0)
(5.24218 -26.6251 0)
(-0.587016 -24.6819 -6.31222e-16)
(27.6165 -34.3695 -3.655e-19)
(27.2633 -35.2808 8.19989e-15)
(26.5517 -36.394 -1.03236e-17)
(25.4149 -37.3442 0)
(23.8514 -38.1921 6.08101e-15)
(22.2629 -38.5695 0)
(20.6855 -38.4418 4.21877e-15)
(19.289 -37.7564 6.60182e-15)
(18.2049 -36.5654 -4.71293e-15)
(17.2591 -34.2587 0)
(15.8685 -31.037 0)
(11.4718 -31.5637 -1.1993e-19)
(25.0267 -35.3024 3.21995e-15)
(24.3033 -35.8659 -3.18035e-15)
(23.4916 -36.4859 3.16958e-15)
(22.6137 -36.9774 0)
(21.7267 -37.2982 -3.18204e-15)
(20.8657 -37.3449 6.52254e-15)
(20.1452 -37.1083 -8.47015e-15)
(19.6477 -36.5683 -8.85172e-15)
(19.4761 -35.8032 5.52838e-15)
(19.4649 -34.3391 0)
(19.2986 -32.0129 1.03775e-15)
(18.8915 -33.6578 -3.83698e-20)
(24.7758 -34.1981 2.80703e-15)
(23.9667 -34.5427 -5.49745e-15)
(23.1444 -34.9217 5.41772e-15)
(22.3257 -35.2748 -5.35741e-15)
(21.5487 -35.5504 0)
(20.8844 -35.6935 2.71314e-15)
(20.4023 -35.6705 2.7541e-15)
(20.1789 -35.4974 1.43795e-15)
(20.3072 -35.1725 -2.83143e-15)
(20.9444 -34.444 0)
(21.8391 -32.4712 -9.26123e-16)
(22.8546 -35.7802 1.49205e-15)
(24.2846 -32.8879 5.13625e-15)
(23.3492 -33.255 -2.47898e-15)
(22.4653 -33.6452 0)
(21.6503 -34.0189 0)
(20.94 -34.3468 2.35896e-15)
(20.3836 -34.6097 -2.30744e-15)
(20.0772 -34.7831 -2.78967e-18)
(20.0438 -34.8772 0)
(20.4183 -34.9391 -1.27626e-15)
(21.3413 -34.791 1.38296e-15)
(22.8757 -33.5638 -1.70764e-15)
(25.433 -37.7861 0)
(23.863 -31.701 -9.42651e-15)
(22.8449 -32.0959 4.55691e-15)
(21.9143 -32.5093 8.87765e-15)
(21.0827 -32.9225 2.72545e-20)
(20.3798 -33.3225 -1.07578e-14)
(19.8495 -33.7036 -4.29705e-15)
(19.5522 -34.0761 -2.68243e-18)
(19.5532 -34.4577 0)
(19.9652 -34.8648 0)
(20.9423 -35.3368 -1.34482e-15)
(22.8934 -34.768 -8.03283e-16)
(26.3145 -39.4962 5.10363e-16)
(23.5209 -30.5863 4.42499e-15)
(22.4118 -31.0276 -8.57944e-15)
(21.4089 -31.4779 -4.17553e-15)
(20.5192 -31.9342 -2.33173e-18)
(19.7659 -32.3999 4.02516e-15)
(19.1858 -32.8872 3.98746e-15)
(18.829 -33.4224 1.99663e-15)
(18.7557 -34.0442 2.0308e-15)
(19.0708 -34.7882 -2.13374e-15)
(19.9641 -35.7468 0)
(21.9003 -35.9614 1.43094e-15)
(26.1943 -40.9443 -9.51208e-16)
(23.251 -29.5547 0)
(22.0425 -30.0298 4.09355e-15)
(20.9499 -30.4996 0)
(19.9737 -30.9743 -2.2212e-18)
(19.1302 -31.472 7.47038e-20)
(18.4472 -32.0219 7.56669e-15)
(17.9618 -32.6705 -1.8698e-15)
(17.7251 -33.4824 -3.75496e-15)
(17.8277 -34.5215 -1.9388e-15)
(18.4702 -35.9508 1.06153e-15)
(20.1811 -36.9642 -1.93323e-15)
(24.7028 -41.9328 8.86512e-16)
(23.0475 -28.5711 4.04069e-15)
(21.729 -29.0535 -3.95151e-15)
(20.5324 -29.5098 -3.87068e-15)
(19.4493 -29.9615 3.79186e-15)
(18.487 -30.4408 3.71431e-15)
(17.6621 -30.9936 -1.0922e-14)
(16.9959 -31.6884 0)
(16.5211 -32.6192 1.76585e-15)
(16.2994 -33.8886 1.78854e-15)
(16.5171 -35.7314 0)
(17.7625 -37.59 1.74676e-15)
(21.9804 -42.4783 -4.12377e-16)
(22.8518 -27.5449 0)
(21.4284 -28.0066 -7.67215e-15)
(20.1283 -28.4138 -3.77111e-15)
(18.933 -28.7977 -7.38664e-15)
(17.8414 -29.2033 3.61689e-15)
(16.8563 -29.693 3.53404e-15)
(15.9778 -30.3588 0)
(15.213 -31.3197 0)
(14.5773 -32.7217 0)
(14.211 -34.8792 0)
(14.6036 -37.3879 -5.26919e-16)
(17.6937 -42.3017 -7.69317e-16)
(22.545 -26.3571 3.7828e-15)
(21.0528 -26.7751 3.71227e-15)
(19.6774 -27.0973 1.46239e-14)
(18.3874 -27.3704 3.59952e-15)
(17.1776 -27.6535 1.4101e-14)
(16.0386 -28.0231 -3.44233e-15)
(14.9471 -28.5942 -3.3573e-15)
(13.8771 -29.4952 0)
(12.779 -30.9124 -3.20641e-15)
(11.7387 -33.22 -1.64078e-15)
(10.837 -36.0361 -9.61857e-16)
(11.4576 -41.1381 0)
(21.9932 -24.9072 0)
(20.4963 -25.2513 0)
(19.0953 -25.4505 -1.41039e-14)
(17.7511 -25.5712 -1.04247e-14)
(16.459 -25.6946 -3.41307e-15)
(15.1975 -25.9128 0)
(13.9261 -26.3551 3.26218e-15)
(12.5879 -27.1312 0)
(11.0558 -28.4488 -1.95036e-18)
(9.318 -30.5736 1.54643e-15)
(6.83592 -33.8453 4.27613e-16)
(-0.67665 -38.2761 -1.88263e-19)
(-1.35327 -21.9142 -2.21283e-16)
(-1.80789 -19.2476 -3.45583e-15)
(-3.1568 -18.0183 3.49527e-15)
(-4.55547 -16.6417 -3.51707e-15)
(-5.77847 -16.0723 0)
(-6.97387 -15.5204 3.52583e-15)
(-7.75906 -15.3641 0)
(-9.64165 -17.1882 3.10489e-15)
(-17.1815 -15.3002 -9.64364e-15)
(-28.6359 -14.8463 9.69701e-15)
(-32.5257 -19.5622 1.97228e-14)
(-35.0849 -21.3663 -6.08587e-15)
(4.6893 -25.5608 0)
(2.66404 -22.4845 -2.93323e-15)
(-0.450566 -22.4177 2.96812e-15)
(-3.45296 -21.9858 2.95852e-15)
(-5.9047 -22.2085 -5.99356e-15)
(-8.99458 -23.6274 -1.65081e-19)
(-15.2499 -23.9963 -6.03854e-15)
(-24.2058 -25.6529 -1.4004e-14)
(-29.9501 -26.4345 1.52022e-14)
(-32.0814 -26.3357 -4.75345e-15)
(-32.6814 -27.274 8.19728e-18)
(-33.317 -27.2299 5.46325e-18)
(4.2367 -28.7815 0)
(1.71387 -25.5682 0)
(-2.81161 -26.02 0)
(-7.07801 -25.6973 -2.60425e-15)
(-12.0654 -26.2412 0)
(-18.96 -27.4875 -2.64786e-15)
(-26.2903 -28.3931 5.24382e-15)
(-31.0991 -28.5905 9.99238e-15)
(-33.3469 -27.9307 -4.02286e-15)
(-34.1981 -26.9158 -7.58031e-15)
(-34.3411 -26.3475 -1.03852e-14)
(-34.768 -25.655 9.96645e-15)
(5.74553 -32.2589 0)
(1.59094 -29.9983 -1.20438e-15)
(-4.26387 -31.1567 2.35405e-15)
(-10.3489 -31.0307 2.37012e-15)
(-17.3434 -31.4918 0)
(-24.2426 -31.6123 -9.47192e-15)
(-29.3314 -30.9962 9.06643e-15)
(-31.7427 -29.9228 0)
(-32.8934 -28.5351 6.95544e-15)
(-33.3762 -27.3894 -9.77017e-15)
(-33.564 -26.4888 6.1424e-15)
(-33.8793 -25.6022 5.05915e-18)
(3.15238 -34.7119 -7.13102e-23)
(-0.887878 -33.9559 2.1936e-15)
(-7.26453 -35.34 3.02022e-18)
(-14.0279 -35.2823 0)
(-20.999 -35.0761 -4.32702e-15)
(-26.4998 -33.9935 8.36664e-15)
(-29.5885 -32.3958 0)
(-31.007 -30.6443 -3.53444e-15)
(-31.6756 -29.0242 -3.27774e-15)
(-32.01 -27.5933 6.0775e-15)
(-32.2495 -26.391 0)
(-32.5588 -25.2917 -5.37167e-15)
(2.00348 -37.5315 5.52325e-16)
(-2.9298 -37.5594 2.07606e-18)
(-9.55553 -38.874 -1.97983e-15)
(-16.1468 -38.4812 -7.94195e-15)
(-22.2505 -37.3622 -2.25031e-18)
(-26.3159 -35.3469 7.35578e-15)
(-28.523 -33.1387 0)
(-29.5951 -31.0905 9.41197e-15)
(-30.2382 -29.2274 -5.83498e-15)
(-30.6488 -27.6083 5.46128e-15)
(-30.9812 -26.2214 2.97817e-18)
(-31.3334 -24.982 -7.29464e-19)
(-1.11134 -39.6133 -1.54226e-15)
(-5.42583 -40.9557 -9.27126e-16)
(-11.4322 -41.6701 0)
(-17.0798 -40.875 7.15234e-15)
(-21.9257 -38.8903 -1.03456e-14)
(-25.0542 -36.3216 -1.63888e-18)
(-26.9117 -33.7611 -1.2057e-14)
(-27.9956 -31.453 5.28793e-18)
(-28.7264 -29.4216 -5.31266e-15)
(-29.2641 -27.6503 -5.03382e-15)
(-29.7176 -26.1119 4.79755e-15)
(-30.154 -24.7468 -4.59039e-15)
(-3.16637 -42.0139 1.43399e-15)
(-7.3143 -43.8802 -8.45049e-16)
(-12.3235 -43.884 0)
(-16.8223 -42.6603 3.13268e-15)
(-20.6802 -40.1402 2.98632e-15)
(-23.4141 -37.2492 2.83104e-15)
(-25.2244 -34.4241 -4.9617e-18)
(-26.4226 -31.8991 -1.41426e-18)
(-27.2953 -29.6889 -4.88876e-15)
(-27.974 -27.7613 -6.5525e-18)
(-28.5461 -26.0781 2.54607e-18)
(-29.0659 -24.5873 0)
(-5.93937 -43.6996 4.45528e-16)
(-8.87184 -46.3981 0)
(-12.5144 -45.4885 0)
(-15.9698 -43.9709 -2.69871e-15)
(-19.1458 -41.2407 2.58728e-15)
(-21.6811 -38.1854 -4.99198e-15)
(-23.548 -35.1798 0)
(-24.9112 -32.4572 4.66198e-15)
(-25.9527 -30.0582 -2.45313e-18)
(-26.7767 -27.9612 4.37445e-15)
(-27.4579 -26.1255 -4.25516e-15)
(-28.0474 -24.5015 8.28542e-15)
(-7.23731 -46.6274 -3.52773e-19)
(-9.30305 -48.3535 -6.69648e-16)
(-11.8104 -46.4316 -2.48843e-15)
(-14.6292 -44.5093 -4.79285e-15)
(-17.3871 -41.696 0)
(-19.8199 -38.634 4.5154e-15)
(-21.7904 -35.6063 -8.82314e-15)
(-23.3465 -32.8116 4.3132e-15)
(-24.5781 -30.3087 4.2321e-15)
(-25.5586 -28.0965 0)
(-26.3504 -26.1439 -4.068e-15)
(-27.0043 -24.4092 -7.96023e-15)
(-9.96192 -46.9273 -7.38092e-16)
(-8.87041 -48.0609 6.27234e-16)
(-10.3256 -45.3397 2.30099e-15)
(-12.6992 -43.1225 2.21521e-15)
(-15.218 -40.51 -5.12229e-19)
(-17.6544 -37.7552 -6.31404e-15)
(-19.7888 -35.0143 8.24608e-15)
(-21.5654 -32.4172 1.62474e-14)
(-23.0112 -30.0241 -1.20169e-14)
(-24.1681 -27.8573 -7.91306e-15)
(-25.085 -25.9056 7.79922e-15)
(-25.8102 -24.1458 0)
(-4.62242 -43.9004 1.31555e-15)
(-6.48171 -43.1384 5.94627e-16)
(-7.74776 -40.2797 1.0858e-15)
(-10.0932 -38.5229 4.20393e-15)
(-12.6975 -36.7902 0)
(-15.2625 -34.8881 3.96284e-15)
(-17.5778 -32.8774 -7.7944e-15)
(-19.5627 -30.8327 -3.84449e-15)
(-21.2112 -28.8387 -3.81059e-15)
(-22.5399 -26.9465 7.54858e-15)
(-23.5824 -25.1737 3.74313e-15)
(-24.3773 -23.5299 1.11046e-14)
(-38.4071 -21.7354 -3.07429e-15)
(-40.4379 -21.5105 3.12015e-15)
(-42.1695 -20.5325 -9.41851e-15)
(-42.836 -19.3117 2.86258e-14)
(-42.9224 -17.8476 -1.25832e-14)
(-42.2514 -16.1594 0)
(-40.8548 -14.3959 -6.18446e-15)
(-38.621 -12.5866 4.62624e-15)
(-35.6329 -10.7852 0)
(-31.7848 -8.79002 1.07445e-18)
(-26.6251 -5.24217 0)
(-24.6819 0.58702 4.20731e-16)
(-34.3695 -27.6164 -1.6787e-14)
(-35.2808 -27.2633 8.21025e-15)
(-36.394 -26.5516 8.10087e-15)
(-37.3442 -25.4149 -4.07812e-15)
(-38.1921 -23.8514 0)
(-38.5695 -22.2629 0)
(-38.4418 -20.6855 4.22064e-15)
(-37.7564 -19.289 -4.40206e-15)
(-36.5654 -18.2049 0)
(-34.2587 -17.2591 1.22272e-15)
(-31.037 -15.8685 -1.40936e-19)
(-31.5637 -11.4718 -1.57059e-15)
(-35.3025 -25.0267 3.22456e-15)
(-35.8659 -24.3033 -6.36688e-15)
(-36.4859 -23.4916 0)
(-36.9774 -22.6137 -6.35447e-15)
(-37.2982 -21.7267 -6.36866e-15)
(-37.3449 -20.8658 1.30444e-14)
(-37.1083 -20.1452 -1.01652e-14)
(-36.5683 -19.6477 0)
(-35.8032 -19.4761 0)
(-34.3391 -19.4649 0)
(-32.0129 -19.2986 -1.03722e-15)
(-33.6578 -18.8915 0)
(-34.1981 -24.7758 -2.80703e-15)
(-34.5427 -23.9667 -4.16354e-18)
(-34.9217 -23.1444 0)
(-35.2748 -22.3257 -3.97117e-18)
(-35.5504 -21.5487 0)
(-35.6935 -20.8844 0)
(-35.6705 -20.4023 2.75589e-15)
(-35.4974 -20.1789 -2.87811e-15)
(-35.1725 -20.3072 2.83294e-15)
(-34.444 -20.9444 0)
(-32.4712 -21.8391 -9.27992e-16)
(-35.7802 -22.8546 1.19333e-15)
(-32.8879 -24.2846 1.02757e-14)
(-33.255 -23.3492 -2.47898e-15)
(-33.6452 -22.4653 4.82572e-15)
(-34.0189 -21.6503 2.37101e-15)
(-34.3468 -20.94 -7.07387e-15)
(-34.6097 -20.3836 0)
(-34.7831 -20.0772 -2.25984e-15)
(-34.8772 -20.0438 0)
(-34.9391 -20.4183 0)
(-34.791 -21.3413 1.38297e-15)
(-33.5638 -22.8757 3.76395e-19)
(-37.7861 -25.433 1.40189e-18)
(-31.701 -23.863 -4.71056e-15)
(-32.0959 -22.8449 -3.00011e-18)
(-32.5093 -21.9143 0)
(-32.9225 -21.0827 0)
(-33.3225 -20.3798 -6.45786e-15)
(-33.7036 -19.8495 4.29458e-15)
(-34.0761 -19.5522 4.34317e-15)
(-34.4577 -19.5532 2.24094e-15)
(-34.8648 -19.9652 -4.78419e-15)
(-35.3368 -20.9423 -1.34482e-15)
(-34.768 -22.8934 0)
(-39.4962 -26.3145 5.10363e-16)
(-30.5863 -23.5209 -8.85244e-15)
(-31.0276 -22.4118 4.28326e-15)
(-31.4779 -21.4089 4.17815e-15)
(-31.9342 -20.5192 2.3169e-18)
(-32.3999 -19.7659 -4.73109e-18)
(-32.8872 -19.1858 -3.99241e-15)
(-33.4224 -18.829 -5.98811e-15)
(-34.0442 -18.7557 -2.03224e-15)
(-34.7882 -19.0708 2.13213e-15)
(-35.7468 -19.9641 0)
(-35.9614 -21.9003 2.14866e-15)
(-40.9443 -26.1943 -1.42701e-15)
(-29.5547 -23.251 8.41704e-15)
(-30.0298 -22.0425 -4.10045e-15)
(-30.4996 -20.9499 -4.00015e-15)
(-30.9743 -19.9737 -7.82593e-15)
(-31.472 -19.1302 7.68189e-15)
(-32.0219 -18.4472 -2.13117e-18)
(-32.6705 -17.9618 1.12319e-14)
(-33.4824 -17.7251 1.87572e-15)
(-34.5215 -17.8277 1.93881e-15)
(-35.9508 -18.4702 0)
(-36.9642 -20.1811 -1.28791e-15)
(-41.9328 -24.7028 4.44053e-16)
(-28.5711 -23.0475 0)
(-29.0535 -21.729 3.94941e-15)
(-29.5098 -20.5324 3.86674e-15)
(-29.9615 -19.4493 -3.79003e-15)
(-30.4408 -18.487 -1.76003e-18)
(-30.9936 -17.6621 -3.64252e-15)
(-31.6884 -16.9959 -3.57193e-15)
(-32.6192 -16.5211 0)
(-33.8886 -16.2994 -1.78854e-15)
(-35.7314 -16.5171 -9.63237e-16)
(-37.59 -17.7625 2.91057e-15)
(-42.4783 -21.9804 -4.10258e-16)
(-27.5449 -22.8518 0)
(-28.0066 -21.4284 0)
(-28.4138 -20.1283 0)
(-28.7977 -18.933 -1.10859e-14)
(-29.2033 -17.8414 7.23354e-15)
(-29.693 -16.8563 7.06983e-15)
(-30.3588 -15.9778 0)
(-31.3197 -15.213 -3.38019e-15)
(-32.7217 -14.5773 0)
(-34.8792 -14.211 -1.76724e-15)
(-37.3879 -14.6036 -5.26919e-16)
(-42.3017 -17.6937 -7.67292e-16)
(-26.3571 -22.545 0)
(-26.7751 -21.0528 0)
(-27.0973 -19.6774 7.31506e-15)
(-27.3704 -18.3874 1.0787e-14)
(-27.6535 -17.1776 4.16777e-18)
(-28.0231 -16.0386 3.44363e-15)
(-28.5942 -14.9471 -1.67814e-15)
(-29.4951 -13.8771 4.89869e-15)
(-30.9124 -12.779 3.20642e-15)
(-33.22 -11.7387 1.63914e-15)
(-36.0361 -10.837 -9.61858e-16)
(-41.1381 -11.4576 -1.43455e-15)
(-24.9072 -21.9932 0)
(-25.2513 -20.4963 0)
(-25.4505 -19.0953 -7.04928e-15)
(-25.5711 -17.7511 3.47822e-15)
(-25.6946 -16.459 -3.41307e-15)
(-25.9127 -15.1975 -3.34058e-15)
(-26.3551 -13.9261 3.26434e-15)
(-27.1312 -12.5879 0)
(-28.4488 -11.0558 -3.0966e-15)
(-30.5736 -9.318 -1.54734e-15)
(-33.8453 -6.83592 1.28593e-15)
(-38.2761 0.67666 1.13325e-19)
(-21.9142 1.35329 -2.01974e-19)
(-19.2476 1.80791 0)
(-18.0183 3.15682 0)
(-16.6417 4.55549 -7.0317e-15)
(-16.0723 5.77848 1.05644e-14)
(-15.5204 6.97387 0)
(-15.3641 7.75906 0)
(-17.1882 9.64164 3.10489e-15)
(-15.3002 17.1814 3.22086e-15)
(-14.8463 28.6358 9.70593e-15)
(-19.5622 32.5257 1.64279e-14)
(-21.3663 35.0849 -3.03925e-15)
(-25.5608 -4.68928 -2.96322e-19)
(-22.4845 -2.66402 0)
(-22.4177 0.450582 0)
(-21.9858 3.45296 -2.96027e-15)
(-22.2085 5.90468 5.99557e-15)
(-23.6274 8.99456 -1.82985e-14)
(-23.9963 15.2499 1.20696e-14)
(-25.6529 24.2058 2.80594e-15)
(-26.4345 29.9501 -5.06118e-15)
(-26.3357 32.0814 7.58832e-18)
(-27.274 32.6814 0)
(-27.2298 33.3169 -8.6498e-15)
(-28.7815 -4.23666 3.50443e-16)
(-25.5682 -1.71385 0)
(-26.02 2.81163 0)
(-25.6973 7.078 -2.01283e-18)
(-26.2412 12.0654 2.4014e-18)
(-27.4875 18.96 -5.28968e-15)
(-28.3931 26.2903 0)
(-28.5905 31.0991 -1.4984e-14)
(-27.9307 33.3469 1.20724e-14)
(-26.9158 34.198 -3.79177e-15)
(-26.3475 34.3411 -6.92478e-15)
(-25.655 34.768 9.96646e-15)
(-32.2588 -5.74551 1.29469e-15)
(-29.9983 -1.59093 1.20438e-15)
(-31.1567 4.26387 0)
(-31.0307 10.3489 2.37012e-15)
(-31.4918 17.3434 -2.38459e-15)
(-31.6123 24.2426 4.72728e-15)
(-30.9962 29.3314 0)
(-29.9228 31.7427 -4.13897e-15)
(-28.5351 32.8934 -1.04381e-14)
(-27.3894 33.3761 6.51475e-15)
(-26.4888 33.564 6.14241e-15)
(-25.6022 33.8793 -1.16853e-14)
(-34.7118 -3.15237 -5.97128e-16)
(-33.9559 0.887885 -1.09607e-15)
(-35.34 7.26453 2.15741e-15)
(-35.2823 14.0279 0)
(-35.0761 20.999 -8.65646e-15)
(-33.9935 26.4997 8.37379e-15)
(-32.3958 29.5885 3.84052e-15)
(-30.6442 31.007 3.52862e-15)
(-29.0242 31.6756 0)
(-27.5932 32.01 0)
(-26.391 32.2495 0)
(-25.2917 32.5588 -7.75374e-18)
(-37.5315 -2.00348 7.30966e-19)
(-37.5594 2.9298 0)
(-38.874 9.55553 -1.97983e-15)
(-38.4811 16.1467 3.97215e-15)
(-37.3622 22.2505 3.8882e-15)
(-35.3469 26.3159 -7.35386e-15)
(-33.1387 28.523 3.34827e-15)
(-31.0905 29.5951 -1.25524e-14)
(-29.2274 30.2382 -2.04011e-18)
(-27.6083 30.6488 -4.60562e-18)
(-26.2214 30.9812 2.97817e-18)
(-24.982 31.3334 1.47316e-14)
(-39.6133 1.11134 5.14797e-16)
(-40.9557 5.42583 1.85867e-15)
(-41.6701 11.4322 -3.61926e-15)
(-40.875 17.0798 -3.57411e-15)
(-38.8903 21.9256 -6.89305e-15)
(-36.3216 25.0542 -3.23896e-15)
(-33.7611 26.9116 -6.0282e-15)
(-31.453 27.9955 1.1283e-14)
(-29.4216 28.7264 0)
(-27.6503 29.2641 1.00609e-14)
(-26.1119 29.7176 -1.43731e-14)
(-24.7468 30.154 4.59363e-15)
(-42.0139 3.16636 -9.55368e-16)
(-43.8802 7.31429 -2.53413e-15)
(-43.884 12.3235 4.83864e-15)
(-42.6603 16.8223 0)
(-40.1402 20.6802 -2.9928e-15)
(-37.2492 23.4141 5.66526e-15)
(-34.4241 25.2244 -2.8633e-18)
(-31.8991 26.4226 1.41426e-18)
(-29.6889 27.2953 -4.88415e-15)
(-27.7613 27.974 -9.35479e-15)
(-26.0781 28.5461 4.4946e-15)
(-24.5873 29.0659 -4.34256e-15)
(-43.6996 5.93936 -8.91056e-16)
(-46.3981 8.87184 0)
(-45.4885 12.5144 0)
(-43.9709 15.9697 0)
(-41.2407 19.1458 2.58728e-15)
(-38.1854 21.6811 0)
(-35.1798 23.548 -3.95345e-18)
(-32.4573 24.9112 9.32301e-15)
(-30.0582 25.9527 2.954e-18)
(-27.9612 26.7767 4.37446e-15)
(-26.1255 27.4579 -4.25305e-15)
(-24.5015 28.0474 1.24259e-14)
(-46.6274 7.23731 -1.65588e-15)
(-48.3535 9.30305 3.35029e-15)
(-46.4316 11.8104 -1.24304e-15)
(-44.5093 14.6292 0)
(-41.696 17.3871 0)
(-38.6341 19.8199 0)
(-35.6063 21.7904 0)
(-32.8116 23.3465 4.31589e-15)
(-30.3087 24.5781 -1.69117e-14)
(-28.0965 25.5586 -8.29115e-15)
(-26.1439 26.3504 8.12774e-15)
(-24.4092 27.0043 3.9901e-15)
(-46.9273 9.96192 -7.38092e-16)
(-48.0609 8.87041 -1.8818e-15)
(-45.3397 10.3256 -1.15325e-15)
(-43.1225 12.6992 0)
(-40.5101 15.218 0)
(-37.7552 17.6544 4.20979e-15)
(-35.0143 19.7888 -8.251e-15)
(-32.4172 21.5654 1.62495e-14)
(-30.0242 23.0112 1.20208e-14)
(-27.8573 24.1681 7.90559e-15)
(-25.9056 25.085 -7.79922e-15)
(-24.1458 25.8102 6.94303e-18)
(-43.9004 4.62241 -1.24231e-18)
(-43.1384 6.48172 0)
(-40.2797 7.74776 2.17016e-15)
(-38.5229 10.0932 -6.30501e-15)
(-36.7902 12.6975 6.10202e-15)
(-34.8881 15.2625 3.74064e-18)
(-32.8774 17.5778 3.89375e-15)
(-30.8327 19.5627 -3.8445e-15)
(-28.8387 21.2112 -1.90525e-14)