/*--------------------------------*- C++ -*----------------------------------*\
| =========                 |                                                 |
| \\      /  F ield         | OpenFOAM: The Open Source CFD Toolbox           |
|  \\    /   O peration     | Version:  2206                                  |
|   \\  /    A nd           | Website:  www.openfoam.com                      |
|    \\/     M anipulation  |                                                 |
\*---------------------------------------------------------------------------*/
FoamFile
{
    version     2.0;
    format      ascii;
    arch        "LSB;label=32;scalar=64";
    class       volScalarField;
    location    "200";
    object      alphat;
}
// * * * * * * * * * * * * * * * * * * * * * * * * * * * * * * * * * * * * * //

dimensions      [1 -1 -1 0 0 0 0];

internalField   nonuniform List<scalar> 
50904
(
5.6393634e-06
9.3149749e-06
6.2322681e-06
1.0728079e-05
2.0011739e-05
2.3382329e-05
1.9132496e-05
2.2008632e-05
3.754396e-05
3.7537266e-05
3.4068095e-05
3.4275184e-05
4.2647352e-05
3.9500877e-05
3.8033516e-05
3.4860464e-05
2.9388142e-05
2.8146423e-05
2.5834149e-05
2.4645505e-05
1.6461168e-05
1.2394326e-05
1.2896985e-05
6.9939231e-06
3.1088097e-06
1.732843e-06
2.0556853e-06
1.1322952e-06
7.060622e-07
4.2107712e-07
5.1253729e-07
3.076797e-07
3.7089918e-07
2.4588013e-07
2.9887221e-07
2.000121e-07
3.3283077e-07
2.3258992e-07
2.7844236e-07
1.9560223e-07
3.4254193e-07
2.4652227e-07
2.8823313e-07
2.0837945e-07
3.64738e-07
2.6877895e-07
3.0779449e-07
2.271403e-07
3.940917e-07
2.9702893e-07
3.3296941e-07
2.5048943e-07
4.3388474e-07
3.3426329e-07
3.6702055e-07
2.8104507e-07
4.8951539e-07
3.845236e-07
4.1397289e-07
3.2154808e-07
5.5706957e-07
4.4352764e-07
4.6960753e-07
3.6730571e-07
6.3339291e-07
5.0839214e-07
5.3107205e-07
4.1612542e-07
7.1677443e-07
5.7737459e-07
5.9498977e-07
4.6551526e-07
8.1534218e-07
6.5501769e-07
6.6445415e-07
5.1683827e-07
9.2384661e-07
7.3942965e-07
7.3331748e-07
5.6592616e-07
1.033756e-06
8.2554975e-07
8.0568413e-07
6.1663603e-07
1.1511819e-06
9.2030463e-07
8.8071675e-07
6.7055142e-07
1.2535112e-06
1.002627e-06
9.4462811e-07
7.1986938e-07
1.3229293e-06
1.0561905e-06
9.9536029e-07
7.606009e-07
1.3685679e-06
1.0894403e-06
1.0309133e-06
7.9025945e-07
1.4091145e-06
1.1148599e-06
1.072737e-06
8.3149535e-07
1.5214214e-06
1.2226171e-06
1.2298876e-06
9.9401932e-07
2.2788097e-06
1.9734855e-06
2.1860987e-06
1.8955228e-06
7.329286e-06
6.9849431e-06
7.8910865e-06
7.1836975e-06
1.3451227e-05
1.5328451e-05
1.4891504e-05
1.6849737e-05
2.1493271e-05
2.6157168e-05
2.3786844e-05
2.8253885e-05
3.5868491e-05
4.4239108e-05
3.8774718e-05
4.662361e-05
4.4549375e-05
4.8830086e-05
4.4873657e-05
4.8832645e-05
3.3369867e-05
3.4933275e-05
3.2713639e-05
3.3816479e-05
1.0609965e-05
1.1159349e-05
9.5259895e-06
1.0183872e-05
1.2696994e-06
1.3139178e-06
1.1614485e-06
1.3426597e-06
6.425667e-06
1.1113378e-05
5.8350024e-06
9.6442714e-06
5.2152534e-06
7.9152965e-06
4.7434997e-06
6.8553488e-06
4.4118201e-06
6.1448749e-06
4.1748077e-06
5.6489937e-06
3.9965979e-06
5.2758626e-06
1.8353403e-05
2.1344197e-05
1.74337e-05
1.9781936e-05
1.6804068e-05
1.8372894e-05
1.641476e-05
1.760562e-05
1.622187e-05
1.7183507e-05
1.6139183e-05
1.6956343e-05
1.6102847e-05
1.6820937e-05
3.2240624e-05
3.2836442e-05
3.1514151e-05
3.3383183e-05
3.160835e-05
3.2548784e-05
3.1448562e-05
3.1812207e-05
3.1191233e-05
3.1085985e-05
3.0842803e-05
3.0360113e-05
3.0578294e-05
2.9864354e-05
3.5147761e-05
3.2629667e-05
3.4821807e-05
3.3259762e-05
3.6580828e-05
3.4973313e-05
3.7754016e-05
3.578194e-05
3.8352868e-05
3.6118801e-05
3.8420663e-05
3.6359007e-05
3.7246055e-05
3.6549017e-05
2.4069775e-05
2.3380811e-05
2.4418712e-05
2.3777791e-05
2.5643131e-05
2.1796091e-05
2.6344753e-05
2.1303278e-05
2.66953e-05
2.0608514e-05
2.6879955e-05
2.0331654e-05
2.6992284e-05
2.0329011e-05
9.8387895e-06
5.4091545e-06
9.2312176e-06
4.5507959e-06
9.7561363e-06
4.0584698e-06
9.728292e-06
3.9773795e-06
9.7997597e-06
3.8926763e-06
1.0454408e-05
3.8751359e-06
9.9734557e-06
4.042031e-06
1.6348084e-06
9.1214081e-07
1.4902668e-06
7.1018219e-07
1.4869383e-06
5.9636608e-07
1.4403019e-06
5.8137918e-07
1.4293438e-06
5.7292583e-07
1.4408253e-06
5.741782e-07
1.3524013e-06
6.0190481e-07
4.2290133e-07
2.5411276e-07
3.835429e-07
1.9324133e-07
3.7360078e-07
1.6150693e-07
3.5607448e-07
1.5912445e-07
3.485655e-07
1.5782454e-07
3.4255611e-07
1.5803758e-07
3.3741586e-07
1.6516543e-07
2.5827252e-07
1.7108713e-07
2.4241285e-07
1.3253485e-07
2.3535518e-07
1.119483e-07
2.2386122e-07
1.1338735e-07
2.1916837e-07
1.1148532e-07
2.154999e-07
1.1210073e-07
2.1185311e-07
1.1452081e-07
2.4467085e-07
1.6860337e-07
2.3131228e-07
1.2945171e-07
2.225277e-07
1.1301881e-07
2.1026875e-07
1.1570726e-07
2.0468228e-07
1.095775e-07
2.0075791e-07
1.10573e-07
1.9659195e-07
1.0986608e-07
2.5432766e-07
1.7859496e-07
2.3993667e-07
1.3383554e-07
2.2806816e-07
1.1933593e-07
2.1387615e-07
1.2415818e-07
2.0709432e-07
1.1502247e-07
2.0213044e-07
1.172051e-07
1.969904e-07
1.1491687e-07
2.7221104e-07
1.9321039e-07
2.5496522e-07
1.4154613e-07
2.3875853e-07
1.260463e-07
2.2195921e-07
1.3130208e-07
2.1440072e-07
1.2427434e-07
2.0931184e-07
1.2611937e-07
2.0428533e-07
1.2359585e-07
2.9497123e-07
2.1221197e-07
2.7584348e-07
1.5225421e-07
2.55452e-07
1.3287273e-07
2.3649726e-07
1.3344428e-07
2.2982223e-07
1.3932394e-07
2.2534081e-07
1.3836105e-07
2.1961149e-07
1.3676217e-07
3.2501439e-07
2.3536096e-07
3.0287151e-07
1.6686296e-07
2.7849106e-07
1.4365319e-07
2.5925955e-07
1.5082342e-07
2.5400268e-07
1.5684657e-07
2.49867e-07
1.5677891e-07
2.4444217e-07
1.55639e-07
3.6709237e-07
2.6644865e-07
3.42406e-07
1.8864292e-07
3.1439249e-07
1.6270021e-07
2.9458717e-07
1.7475369e-07
2.9033177e-07
1.8126205e-07
2.8709181e-07
1.8266596e-07
2.8213245e-07
1.8214314e-07
4.1580285e-07
3.0009484e-07
3.8892896e-07
2.1433981e-07
3.5876918e-07
1.8854162e-07
3.3877469e-07
2.025577e-07
3.3546813e-07
2.101836e-07
3.3357211e-07
2.1203476e-07
3.2871288e-07
2.1118558e-07
4.6789561e-07
3.3372451e-07
4.3835162e-07
2.4095127e-07
4.0650275e-07
2.1657641e-07
3.8684199e-07
2.3265507e-07
3.8465081e-07
2.4093255e-07
3.8400653e-07
2.4323997e-07
3.7926368e-07
2.419657e-07
5.1978816e-07
3.6616679e-07
4.869937e-07
2.6797405e-07
4.5497887e-07
2.4519719e-07
4.3611137e-07
2.6270624e-07
4.3487504e-07
2.7165511e-07
4.3502251e-07
2.7511718e-07
4.3088359e-07
2.7326667e-07
5.7665756e-07
4.0065378e-07
5.3845167e-07
2.9533329e-07
5.0436852e-07
2.7155373e-07
4.8542296e-07
2.8893165e-07
4.8404975e-07
2.9856098e-07
4.8340922e-07
3.0353201e-07
4.8152193e-07
3.0292669e-07
6.3287565e-07
4.3306476e-07
5.8781038e-07
3.2140484e-07
5.5172591e-07
2.950452e-07
5.328484e-07
3.1095692e-07
5.3062767e-07
3.2175597e-07
5.2893611e-07
3.2883386e-07
5.2552424e-07
3.2993427e-07
6.935399e-07
4.6789468e-07
6.4025417e-07
3.4738344e-07
5.976083e-07
3.1844881e-07
5.7663432e-07
3.3570552e-07
5.7322246e-07
3.6465137e-07
5.7006367e-07
3.5371684e-07
5.6672874e-07
3.6402899e-07
7.5511624e-07
5.033109e-07
6.9138737e-07
3.7509513e-07
6.3824128e-07
3.4638962e-07
6.1442429e-07
3.6529939e-07
6.1721282e-07
4.0007778e-07
6.5740006e-07
3.9380308e-07
6.9378331e-07
4.0545782e-07
8.0574567e-07
5.3925608e-07
7.4098046e-07
4.029346e-07
6.7723493e-07
3.7734303e-07
6.5031124e-07
4.0607417e-07
6.7227554e-07
4.4454116e-07
8.3650707e-07
4.3358172e-07
8.524403e-07
4.5200051e-07
8.4878099e-07
5.7509325e-07
7.892254e-07
4.285937e-07
7.2432789e-07
4.0292837e-07
6.9528876e-07
4.327157e-07
7.0993513e-07
4.5625793e-07
7.7068554e-07
5.0152496e-07
8.0487204e-07
4.9510378e-07
8.7843231e-07
6.0813929e-07
8.3003461e-07
4.5489342e-07
7.7405128e-07
4.3162619e-07
7.4738477e-07
4.6738056e-07
7.6019996e-07
4.9031798e-07
7.8482137e-07
5.159408e-07
8.1434993e-07
5.4055342e-07
9.1925767e-07
6.6944772e-07
8.9040798e-07
5.1897267e-07
8.5233909e-07
5.2419148e-07
8.3336254e-07
5.69926e-07
8.5344948e-07
6.062876e-07
8.8432654e-07
6.4132708e-07
9.1639061e-07
6.7166321e-07
1.1065047e-06
8.8800127e-07
1.133855e-06
8.1798832e-07
1.1532814e-06
9.7887149e-07
1.1744214e-06
1.1558691e-06
1.2217422e-06
1.2235779e-06
1.26908e-06
1.3515164e-06
1.3063221e-06
1.4263765e-06
2.149156e-06
2.002714e-06
2.4187601e-06
2.2772458e-06
2.7159012e-06
3.2694773e-06
2.9553333e-06
4.1686193e-06
3.1645007e-06
4.5851044e-06
3.3138523e-06
4.8857446e-06
3.3781206e-06
5.264763e-06
7.8943251e-06
7.5232129e-06
8.8825961e-06
9.3932319e-06
1.0493882e-05
1.5127883e-05
1.1984657e-05
2.1476151e-05
1.3240886e-05
2.2815377e-05
1.414891e-05
2.3519869e-05
1.4459926e-05
2.3958586e-05
1.5262201e-05
1.7317582e-05
1.6149225e-05
2.1171074e-05
1.7830394e-05
2.56728e-05
1.9185133e-05
2.8752653e-05
2.0047475e-05
3.0633004e-05
2.0564659e-05
3.1786025e-05
2.0893904e-05
3.250979e-05
2.4321232e-05
2.7817156e-05
2.4599147e-05
3.1379648e-05
2.6820384e-05
3.7644172e-05
2.9029868e-05
4.2419148e-05
3.0635081e-05
4.5423782e-05
3.1617637e-05
4.7216427e-05
3.2208979e-05
4.8324275e-05
3.9788898e-05
4.529069e-05
3.9703123e-05
4.6965873e-05
4.2245629e-05
5.3012749e-05
4.5691329e-05
5.8436781e-05
4.8204164e-05
6.170616e-05
4.9741394e-05
6.3482922e-05
5.0636605e-05
6.4439216e-05
4.5105791e-05
4.954066e-05
4.628743e-05
5.2531347e-05
4.9187557e-05
5.5359134e-05
5.1433264e-05
5.8048233e-05
5.2206624e-05
5.8689387e-05
5.2141809e-05
5.7871715e-05
5.1746639e-05
5.6927959e-05
3.2319016e-05
3.3560196e-05
3.2698637e-05
3.4220958e-05
3.3415128e-05
3.4765345e-05
3.3871562e-05
3.459708e-05
3.3961655e-05
3.4170121e-05
3.3922685e-05
3.3837075e-05
3.3904379e-05
3.3638916e-05
9.4151409e-06
1.0617929e-05
9.9523673e-06
1.1071041e-05
1.0249133e-05
1.0632319e-05
9.9804226e-06
9.8250964e-06
9.5572017e-06
9.1132784e-06
9.241802e-06
8.652242e-06
9.0535881e-06
8.37664e-06
1.1696985e-06
1.6925715e-06
1.2361572e-06
1.7822505e-06
1.2470969e-06
1.6541971e-06
1.1918169e-06
1.4868323e-06
1.1143999e-06
1.3454601e-06
1.0482221e-06
1.248666e-06
9.9998923e-07
1.1828058e-06
3.8527405e-06
4.9714373e-06
3.7186398e-06
4.6769396e-06
3.6156629e-06
4.4579127e-06
3.5147758e-06
4.242576e-06
3.3839856e-06
3.9578711e-06
3.1657505e-06
3.4723623e-06
1.6081161e-05
1.6714864e-05
1.6056364e-05
1.6625518e-05
1.6050331e-05
1.656095e-05
1.6014578e-05
1.6459292e-05
1.5953263e-05
1.6316779e-05
1.5852999e-05
1.6131419e-05
3.0373755e-05
2.9436572e-05
3.0295247e-05
2.919007e-05
3.0213133e-05
2.8949392e-05
3.0056795e-05
2.8682345e-05
2.9935059e-05
2.8421177e-05
2.9867136e-05
2.8273895e-05
3.6328898e-05
3.6697939e-05
3.5767045e-05
3.6838045e-05
3.5242917e-05
3.6929386e-05
3.484907e-05
3.7007816e-05
3.4528335e-05
3.5368831e-05
3.4590038e-05
3.421414e-05
2.7083284e-05
2.1819629e-05
2.7156229e-05
2.5251548e-05
2.7193925e-05
2.5839799e-05
2.7214532e-05
2.6251968e-05
2.7221489e-05
2.6268889e-05
2.7214333e-05
2.6310717e-05
1.0082236e-05
4.9317241e-06
1.1821676e-05
5.2286171e-06
1.1055287e-05
5.0603113e-06
1.0144669e-05
5.0880518e-06
9.7507515e-06
5.1757103e-06
1.0819952e-05
5.3201127e-06
1.3668289e-06
7.5655939e-07
1.3260965e-06
7.3537671e-07
1.3022322e-06
7.2495608e-07
1.3354934e-06
7.3286553e-07
1.4159905e-06
7.4494002e-07
1.540188e-06
7.6430349e-07
3.3402586e-07
2.0645431e-07
3.2543583e-07
1.9155618e-07
3.1848263e-07
1.9216594e-07
3.2572518e-07
1.954832e-07
3.4514852e-07
1.9962121e-07
3.7698339e-07
2.0501139e-07
2.091356e-07
1.3248959e-07
2.0340827e-07
1.2928022e-07
1.9930449e-07
1.3082651e-07
2.0445623e-07
1.3439163e-07
2.173598e-07
1.3812847e-07
2.3806317e-07
1.417936e-07
1.9301366e-07
1.1596129e-07
1.8752275e-07
1.216191e-07
1.8428713e-07
1.229762e-07
1.8978325e-07
1.2784399e-07
2.0221674e-07
1.3233661e-07
2.211871e-07
1.3578288e-07
1.9282512e-07
1.1499557e-07
1.8751023e-07
1.2036838e-07
1.8530496e-07
1.2346678e-07
1.923174e-07
1.2953578e-07
2.0542807e-07
1.3536212e-07
2.2383765e-07
1.3908744e-07
2.0104506e-07
1.2259495e-07
1.9676661e-07
1.214744e-07
1.9468291e-07
1.2632403e-07
2.0121118e-07
1.330581e-07
2.1367235e-07
1.4001732e-07
2.3133398e-07
1.4424267e-07
2.1602752e-07
1.3473503e-07
2.1144547e-07
1.3157996e-07
2.0895871e-07
1.3064483e-07
2.15687e-07
1.3842398e-07
2.285598e-07
1.4663058e-07
2.4618308e-07
1.5155968e-07
2.401793e-07
1.5285259e-07
2.3484809e-07
1.4841948e-07
2.3253198e-07
1.4562195e-07
2.3960858e-07
1.4756232e-07
2.5268793e-07
1.5689613e-07
2.6966911e-07
1.6217575e-07
2.7754418e-07
1.7941971e-07
2.7273636e-07
1.7449364e-07
2.7129677e-07
1.7047063e-07
2.7869861e-07
1.695237e-07
2.913932e-07
1.7060927e-07
3.0701856e-07
1.7492568e-07
3.2403987e-07
2.0856637e-07
3.201271e-07
2.0385043e-07
3.1872687e-07
1.9927428e-07
3.2552713e-07
1.9774369e-07
3.3734022e-07
1.9750846e-07
3.514516e-07
1.9731384e-07
3.748309e-07
2.3862366e-07
3.7204435e-07
2.3296952e-07
3.7023436e-07
2.2745441e-07
3.7579243e-07
2.2639974e-07
3.8621923e-07
2.2711907e-07
3.9881703e-07
2.2777046e-07
4.2741682e-07
2.6897235e-07
4.256663e-07
2.6224321e-07
4.2327378e-07
2.5530161e-07
4.2750629e-07
2.5444448e-07
4.3640331e-07
2.5640173e-07
4.4740762e-07
2.5802436e-07
4.7990902e-07
2.9896535e-07
4.7735776e-07
2.9117804e-07
4.7410872e-07
2.8243883e-07
4.77271e-07
2.8051744e-07
4.8494462e-07
2.8307149e-07
4.9537427e-07
2.8536604e-07
5.2351315e-07
3.2757391e-07
5.2112373e-07
3.2114732e-07
5.1780886e-07
3.1139296e-07
5.2276155e-07
3.0740608e-07
5.3342081e-07
3.0871166e-07
5.5213613e-07
3.1021118e-07
5.6731785e-07
3.6404295e-07
5.6702662e-07
3.5981968e-07
5.6551722e-07
3.4805562e-07
5.7979477e-07
3.38909e-07
6.2573866e-07
3.3413629e-07
7.2773862e-07
3.2858434e-07
7.2744225e-07
4.0635672e-07
7.5047609e-07
4.0043274e-07
7.8551849e-07
3.8328888e-07
8.2236202e-07
3.6567376e-07
8.1863127e-07
3.5661048e-07
7.992455e-07
3.5378974e-07
8.6560056e-07
4.55563e-07
8.6605572e-07
4.4846391e-07
8.7773473e-07
4.2927247e-07
9.0428562e-07
4.0704053e-07
9.3766158e-07
3.9373724e-07
9.2188133e-07
3.8903367e-07
8.332611e-07
5.0219031e-07
8.3825827e-07
4.9258516e-07
8.4672821e-07
4.7108299e-07
8.6673298e-07
4.4550111e-07
9.1438156e-07
4.3083354e-07
9.4375967e-07
4.2671163e-07
8.2988629e-07
5.4494787e-07
8.3428828e-07
5.3285796e-07
8.2825505e-07
5.094368e-07
8.2303388e-07
4.8402266e-07
8.5650229e-07
4.7323724e-07
9.1398535e-07
4.7559954e-07
9.3216689e-07
6.7432985e-07
9.3450426e-07
6.576098e-07
9.2554259e-07
6.3155552e-07
9.2553581e-07
6.0876049e-07
9.9201589e-07
6.0802989e-07
8.6899603e-07
6.3594635e-07
1.3308905e-06
1.4485627e-06
1.3511804e-06
1.4305962e-06
1.3495597e-06
1.3981598e-06
1.3279992e-06
1.3802434e-06
1.311985e-06
1.4222604e-06
1.333366e-06
1.5456756e-06
3.4080609e-06
5.4052326e-06
3.4705302e-06
5.4268186e-06
3.5289642e-06
5.3895935e-06
3.5979734e-06
5.3908923e-06
3.6696264e-06
5.6145179e-06
3.8001498e-06
6.1799961e-06
1.4441094e-05
2.4259755e-05
1.4653158e-05
2.457508e-05
1.5144322e-05
2.4852403e-05
1.5834904e-05
2.5144169e-05
1.6436814e-05
2.5516749e-05
1.6799928e-05
2.6139372e-05
2.110967e-05
3.2994369e-05
2.1346792e-05
3.3494644e-05
2.1563105e-05
3.3937612e-05
2.1799609e-05
3.4405898e-05
2.21199e-05
3.5006911e-05
2.2680016e-05
3.600224e-05
3.2587355e-05
4.9026961e-05
3.2975441e-05
4.9695722e-05
3.3326725e-05
5.0268052e-05
3.3704594e-05
5.0863687e-05
3.4201288e-05
5.162915e-05
3.5028534e-05
5.2918854e-05
5.1174055e-05
6.4972195e-05
5.1637931e-05
6.4961864e-05
5.2037555e-05
6.4273412e-05
5.244964e-05
6.4228761e-05
5.2759055e-05
6.4240351e-05
5.3152737e-05
6.4294488e-05
5.1327311e-05
5.6301418e-05
5.1144274e-05
5.6100651e-05
5.1035626e-05
5.6014589e-05
5.1064613e-05
5.6208347e-05
5.1174945e-05
5.6274426e-05
5.1506398e-05
5.617009e-05
3.3970125e-05
3.3637697e-05
3.4046217e-05
3.3670528e-05
3.4140583e-05
3.3736416e-05
3.4243757e-05
3.3823426e-05
3.4329031e-05
3.3801157e-05
3.4438952e-05
3.3639391e-05
8.9438308e-06
8.2069368e-06
8.8521369e-06
8.0504961e-06
8.790559e-06
7.9259487e-06
8.7367632e-06
7.8007861e-06
8.6737554e-06
7.6493566e-06
8.5700023e-06
7.4240965e-06
9.6592644e-07
1.1387019e-06
9.3599153e-07
1.0974636e-06
9.1202203e-07
1.0646166e-06
8.895228e-07
1.0324041e-06
8.6242659e-07
9.9149338e-07
8.2243414e-07
9.2771528e-07
2.8354354e-06
2.7874601e-06
2.6063189e-06
2.3831053e-06
2.5215163e-06
2.2870663e-06
2.4818846e-06
2.2489711e-06
2.4555819e-06
2.2246237e-06
2.4322599e-06
2.2060144e-06
1.5641799e-05
1.5844442e-05
1.5440979e-05
1.5619852e-05
1.5409565e-05
1.558724e-05
1.5411266e-05
1.5635011e-05
1.5413924e-05
1.5658821e-05
1.541573e-05
1.5681457e-05
2.9767769e-05
2.8285332e-05
2.9671814e-05
2.8332129e-05
2.9612578e-05
2.8373197e-05
2.9665736e-05
2.8470223e-05
2.9691734e-05
2.8653766e-05
2.9657174e-05
2.8663666e-05
3.4775571e-05
3.4701932e-05
3.4873057e-05
3.4866875e-05
3.4635161e-05
3.4708798e-05
3.4642754e-05
3.460076e-05
3.4699889e-05
3.4413713e-05
3.4655212e-05
3.4806585e-05
2.7190214e-05
2.6332737e-05
2.7205417e-05
2.6353551e-05
2.7243111e-05
2.6372242e-05
2.7272519e-05
2.6380627e-05
2.729488e-05
2.6386009e-05
2.7313209e-05
2.6386898e-05
1.1822581e-05
5.4699201e-06
1.256678e-05
5.8137521e-06
1.3783776e-05
6.0503157e-06
1.395938e-05
6.1790464e-06
1.3895221e-05
6.244397e-06
1.3709227e-05
6.2808883e-06
1.6735456e-06
7.7478441e-07
1.8213154e-06
8.0851329e-07
1.9178696e-06
8.333559e-07
1.9271007e-06
8.4762897e-07
1.9459697e-06
8.548868e-07
1.9716212e-06
8.691179e-07
4.1433397e-07
2.0694228e-07
4.5978608e-07
2.1452082e-07
4.7844334e-07
2.2010478e-07
4.8017746e-07
2.2352688e-07
4.8188692e-07
2.2556478e-07
4.9008452e-07
2.3012721e-07
2.640781e-07
1.420267e-07
2.9839011e-07
1.4610143e-07
3.067047e-07
1.4950216e-07
3.0799611e-07
1.5181483e-07
3.0976883e-07
1.5349458e-07
3.1626754e-07
1.5710178e-07
2.4578619e-07
1.3467329e-07
2.8103232e-07
1.3736463e-07
2.8496016e-07
1.4010836e-07
2.8574789e-07
1.4208456e-07
2.8762767e-07
1.4353353e-07
2.9416355e-07
1.4686908e-07
2.4807685e-07
1.3686547e-07
2.86946e-07
1.3869826e-07
2.869813e-07
1.4096451e-07
2.8696748e-07
1.427479e-07
2.8890991e-07
1.4398041e-07
2.956963e-07
1.4719003e-07
2.5511478e-07
1.4143476e-07
2.9734177e-07
1.4251182e-07
2.9530022e-07
1.44147e-07
2.9489047e-07
1.4567139e-07
2.9712235e-07
1.4663507e-07
3.039877e-07
1.4955336e-07
2.6989393e-07
1.4884919e-07
3.1670742e-07
1.4941454e-07
3.1312167e-07
1.5061225e-07
3.1326849e-07
1.5187952e-07
3.1612772e-07
1.5274614e-07
3.2286294e-07
1.5546506e-07
2.9099659e-07
1.5952816e-07
3.1347404e-07
1.6070712e-07
3.3045737e-07
1.6263168e-07
3.4023475e-07
1.6321364e-07
3.4341247e-07
1.640478e-07
3.4997176e-07
1.6836169e-07
3.2680667e-07
1.742185e-07
3.408628e-07
1.772585e-07
3.451219e-07
1.8273325e-07
3.4682321e-07
1.8611933e-07
3.5230594e-07
1.8828231e-07
3.6683896e-07
1.9337376e-07
3.7070221e-07
1.9993387e-07
3.8579054e-07
2.0743584e-07
3.9118587e-07
2.1312409e-07
3.92267e-07
2.1623692e-07
3.9483571e-07
2.1872078e-07
4.0460052e-07
2.240774e-07
4.17711e-07
2.3150035e-07
4.3349457e-07
2.4001437e-07
4.3920854e-07
2.462064e-07
4.3965078e-07
2.4918174e-07
4.4171611e-07
2.5088742e-07
4.6019987e-07
2.5659089e-07
4.6695857e-07
2.6282751e-07
4.8469e-07
2.7191429e-07
4.9754089e-07
2.7749787e-07
5.0840013e-07
2.7899777e-07
5.2095672e-07
2.7893513e-07
5.4480704e-07
2.8499178e-07
5.2656115e-07
2.9129795e-07
5.795172e-07
2.9810948e-07
5.7365512e-07
3.0141717e-07
5.6706359e-07
3.0323031e-07
5.6603348e-07
3.0330623e-07
5.7574917e-07
3.0896191e-07
6.3919227e-07
3.1269189e-07
6.1683827e-07
3.1911307e-07
6.069862e-07
3.2455952e-07
5.9642062e-07
3.2424997e-07
5.9259795e-07
3.2335394e-07
6.0668456e-07
3.3042359e-07
6.8681125e-07
3.336203e-07
6.6376249e-07
3.4274633e-07
6.5162594e-07
3.4651951e-07
6.3653911e-07
3.4471187e-07
6.3137651e-07
3.431929e-07
6.4898205e-07
3.5172886e-07
7.5850736e-07
3.616041e-07
7.2399934e-07
3.7029268e-07
7.0656552e-07
3.7499632e-07
6.90807e-07
3.7248046e-07
6.8800862e-07
3.7058373e-07
7.1269955e-07
3.8070623e-07
8.5577591e-07
3.9686199e-07
8.0627639e-07
4.0747032e-07
7.9089446e-07
4.1404646e-07
7.7760484e-07
4.118877e-07
7.7980989e-07
4.1083964e-07
8.0434872e-07
4.2225397e-07
8.5295132e-07
4.3703894e-07
8.8602626e-07
4.4744368e-07
8.8133486e-07
4.5347185e-07
8.6903834e-07
4.5438086e-07
8.7347979e-07
4.5594279e-07
8.9530546e-07
4.7168951e-07
8.1852153e-07
4.9423445e-07
9.9715951e-07
5.0071563e-07
9.8151679e-07
5.008293e-07
9.5908342e-07
5.0529503e-07
9.6147294e-07
5.1071004e-07
9.8319987e-07
5.3306009e-07
9.0456433e-07
6.8107086e-07
1.092359e-06
6.9904878e-07
1.1674417e-06
6.9784402e-07
1.1512311e-06
7.0273278e-07
1.1478686e-06
7.1758218e-07
1.1628499e-06
7.5643055e-07
1.4088506e-06
1.7322967e-06
1.654672e-06
1.8787744e-06
1.9785392e-06
1.88897e-06
1.9562894e-06
1.8995365e-06
1.9626474e-06
1.9642726e-06
2.0010458e-06
2.0919453e-06
4.1071949e-06
7.1054128e-06
4.7060548e-06
8.0079811e-06
6.255794e-06
8.0900486e-06
6.1589583e-06
8.1352077e-06
6.179246e-06
8.4987921e-06
6.3275713e-06
9.1094238e-06
1.7299866e-05
2.7183451e-05
1.7899719e-05
2.8444816e-05
1.8161622e-05
2.8887357e-05
1.8319022e-05
2.9131855e-05
1.8433822e-05
2.9314299e-05
1.8537572e-05
2.9479129e-05
2.3535652e-05
3.7659171e-05
2.4503073e-05
3.972652e-05
2.4964852e-05
4.0484908e-05
2.5232512e-05
4.0901546e-05
2.542622e-05
4.1208335e-05
2.5599321e-05
4.1482257e-05
3.6293739e-05
5.5005303e-05
3.7873393e-05
5.7606986e-05
3.8622837e-05
5.8588687e-05
3.904688e-05
5.9125739e-05
3.9353113e-05
5.9517096e-05
3.9623417e-05
5.9868819e-05
5.4104181e-05
6.5028171e-05
5.56686e-05
6.6835494e-05
5.6292582e-05
6.7071618e-05
5.6502177e-05
6.6888578e-05
5.6435121e-05
6.6741357e-05
5.656564e-05
6.675027e-05
5.2128744e-05
5.6424975e-05
5.3097118e-05
5.731666e-05
5.3542785e-05
5.7482171e-05
5.3749889e-05
5.741669e-05
5.3870101e-05
5.7341329e-05
5.3965206e-05
5.732564e-05
3.4646784e-05
3.3576399e-05
3.5032218e-05
3.380444e-05
3.5228213e-05
3.3876492e-05
3.533021e-05
3.3875169e-05
3.5402461e-05
3.3869702e-05
3.5464963e-05
3.3879169e-05
8.4165952e-06
7.1300492e-06
8.3442394e-06
6.9915968e-06
8.3241315e-06
6.9582145e-06
8.291951e-06
6.9088079e-06
8.2594373e-06
6.8551511e-06
8.2282954e-06
6.7980531e-06
7.7146502e-07
8.3901628e-07
7.3808785e-07
7.7285191e-07
7.2344474e-07
7.3989405e-07
7.1183691e-07
7.1619518e-07
7.0105153e-07
6.9715457e-07
6.8950767e-07
6.7853023e-07
2.4041715e-06
2.1914027e-06
2.3825749e-06
2.1952091e-06
2.3620597e-06
2.216684e-06
2.3438461e-06
2.2716423e-06
2.3289806e-06
2.396953e-06
2.3313482e-06
2.6773276e-06
2.4538828e-06
3.399416e-06
1.5397223e-05
1.56652e-05
1.5396504e-05
1.5672289e-05
1.538566e-05
1.5676469e-05
1.5361854e-05
1.5702941e-05
1.534517e-05
1.5784788e-05
1.5319186e-05
1.5910888e-05
1.5293262e-05
1.6196482e-05
2.9645353e-05
2.8664855e-05
2.968155e-05
2.8730911e-05
2.9732132e-05
2.8778687e-05
2.9868242e-05
2.8892679e-05
2.9949831e-05
2.9100214e-05
3.0044055e-05
2.9444223e-05
3.0217424e-05
2.9998149e-05
3.4353915e-05
3.4757969e-05
3.4342425e-05
3.4874573e-05
3.4329051e-05
3.4780507e-05
3.4395942e-05
3.4423182e-05
3.4702833e-05
3.4329331e-05
3.4921501e-05
3.456772e-05
3.5147826e-05
3.5321118e-05
2.7334765e-05
2.6382669e-05
2.7373812e-05
2.6417044e-05
2.7399616e-05
2.6470123e-05
2.7432858e-05
2.6546139e-05
2.747895e-05
2.6669299e-05
2.7564408e-05
2.6799372e-05
2.7720894e-05
2.683509e-05
1.4375976e-05
6.4125284e-06
1.553267e-05
7.595526e-06
1.3950878e-05
8.0832525e-06
1.4485487e-05
7.7287695e-06
1.4738409e-05
7.9534403e-06
1.5284621e-05
9.2744574e-06
1.5627988e-05
1.0910887e-05
1.9737938e-06
8.8985686e-07
2.0707902e-06
9.147674e-07
2.4840035e-06
9.5258831e-07
2.0661719e-06
9.9844902e-07
2.2186898e-06
1.0757765e-06
2.3914921e-06
1.2294763e-06
2.6757706e-06
1.4185652e-06
4.9666182e-07
2.3697764e-07
5.0111836e-07
2.4502714e-07
5.128862e-07
2.5463164e-07
5.2666586e-07
2.6571767e-07
5.5015331e-07
2.8606282e-07
6.0143049e-07
3.3654795e-07
6.763088e-07
3.9616494e-07
3.2182654e-07
1.6214664e-07
3.2570734e-07
1.6781752e-07
3.351248e-07
1.7474091e-07
3.5439087e-07
1.8289055e-07
3.5528075e-07
2.016459e-07
4.0080665e-07
2.4101528e-07
4.5343446e-07
2.9005922e-07
2.9967409e-07
1.5137443e-07
3.0371435e-07
1.5644884e-07
3.1062707e-07
1.6283634e-07
3.1835383e-07
1.7257788e-07
3.3470703e-07
1.9309906e-07
3.7838726e-07
2.3405651e-07
4.4091407e-07
2.9042667e-07
3.0101941e-07
1.5137519e-07
3.0495179e-07
1.5614565e-07
3.1394518e-07
1.6226661e-07
3.2443898e-07
1.745972e-07
3.4277114e-07
1.9634645e-07
3.8937692e-07
2.4037711e-07
4.6267281e-07
3.0738482e-07
3.0888387e-07
1.5334956e-07
3.1261585e-07
1.5761645e-07
3.2178922e-07
1.6666733e-07
3.3425126e-07
1.7973309e-07
3.5549101e-07
2.0247144e-07
4.0687776e-07
2.5002584e-07
4.9390614e-07
3.2899994e-07
3.2702283e-07
1.5987664e-07
3.3049017e-07
1.6756658e-07
3.3702082e-07
1.7770158e-07
3.504379e-07
1.9114431e-07
3.7598069e-07
2.1489567e-07
4.3442722e-07
2.666858e-07
5.3753731e-07
3.5785342e-07
3.5322128e-07
1.7518955e-07
3.5616307e-07
1.8288107e-07
3.6205071e-07
1.9341148e-07
3.7519105e-07
2.08209e-07
4.0610541e-07
2.3528664e-07
4.7408679e-07
2.9292595e-07
6.0027516e-07
3.9924788e-07
3.8027348e-07
1.9948164e-07
3.9202982e-07
2.0691147e-07
4.024067e-07
2.1737361e-07
4.1600971e-07
2.3400003e-07
4.5526763e-07
2.6558355e-07
5.3830948e-07
3.3263907e-07
6.9348071e-07
4.5794245e-07
4.1422546e-07
2.3086256e-07
4.252957e-07
2.3862332e-07
4.4738852e-07
2.4918841e-07
4.6681089e-07
2.6758071e-07
5.1580117e-07
3.0357364e-07
6.1656445e-07
3.8114567e-07
8.0258996e-07
5.2544268e-07
4.8271586e-07
2.6393098e-07
5.0128941e-07
2.7068304e-07
5.1075396e-07
2.8218323e-07
5.2143729e-07
3.0327076e-07
5.7935694e-07
3.4421304e-07
6.9828076e-07
4.3050151e-07
9.1669788e-07
5.9209226e-07
5.5287729e-07
2.9383594e-07
5.5374957e-07
3.013367e-07
5.5820449e-07
3.1398723e-07
5.7390028e-07
3.364511e-07
6.3842824e-07
3.8078962e-07
7.7078721e-07
4.7322671e-07
1.0121496e-06
6.4591886e-07
5.8568378e-07
3.192487e-07
5.9211568e-07
3.2954678e-07
5.9569172e-07
3.4256851e-07
6.2000173e-07
3.6472296e-07
6.8578544e-07
4.0881747e-07
8.2166362e-07
5.020705e-07
1.0780647e-06
6.8044046e-07
6.1871652e-07
3.4224398e-07
6.2264831e-07
3.5271763e-07
6.266901e-07
3.6591336e-07
6.5892677e-07
3.8706015e-07
7.225288e-07
4.2824834e-07
8.5442814e-07
5.1700397e-07
1.1109923e-06
6.9149339e-07
6.6180142e-07
3.6442998e-07
6.6469373e-07
3.7502955e-07
6.6756851e-07
3.8809634e-07
6.9648323e-07
4.0813133e-07
7.559763e-07
4.4595961e-07
8.8131666e-07
5.2867519e-07
1.1352172e-06
6.9816242e-07
7.2983754e-07
3.9468663e-07
7.3518001e-07
4.0464121e-07
7.3674636e-07
4.1624938e-07
7.4410829e-07
4.363137e-07
8.0108177e-07
4.7401432e-07
9.2534159e-07
5.5454292e-07
1.17944e-06
7.225899e-07
8.2379507e-07
4.3909481e-07
8.3936585e-07
4.4970973e-07
8.4388371e-07
4.5856895e-07
8.5272212e-07
4.7761409e-07
8.7492949e-07
5.1802388e-07
9.9753583e-07
6.0545466e-07
1.2710384e-06
7.8685389e-07
9.1332248e-07
4.9410441e-07
9.3369299e-07
5.0586023e-07
9.399877e-07
5.1386309e-07
9.5457085e-07
5.3531532e-07
9.8368932e-07
5.8020078e-07
1.0697737e-06
6.815948e-07
1.3511793e-06
8.9121032e-07
1.0033272e-06
5.6202231e-07
1.0326511e-06
5.7630927e-07
1.0429754e-06
5.8707306e-07
1.0630025e-06
6.1808879e-07
1.102145e-06
6.8240766e-07
1.1918488e-06
8.2567959e-07
1.4737618e-06
1.1026578e-06
1.1803977e-06
8.0255918e-07
1.2191546e-06
8.2746903e-07
1.2344638e-06
8.4981676e-07
1.2589588e-06
9.0595645e-07
1.3114969e-06
1.019339e-06
1.4394168e-06
1.2626134e-06
1.6883069e-06
1.6957623e-06
2.0280547e-06
2.23529e-06
2.0941501e-06
2.3174935e-06
2.1300546e-06
2.3974332e-06
2.1872533e-06
2.5654623e-06
2.3110465e-06
2.8949869e-06
2.577367e-06
3.6726015e-06
2.9543248e-06
8.1859452e-06
6.4586985e-06
9.7891432e-06
6.7041637e-06
1.0201283e-05
6.8512721e-06
1.058985e-05
7.0883096e-06
1.1397234e-05
7.5958649e-06
1.3121015e-05
8.6565874e-06
1.7148575e-05
1.0175098e-05
2.4079348e-05
1.8647177e-05
2.9639843e-05
1.8749824e-05
2.9792496e-05
1.8901013e-05
2.9984941e-05
1.9133935e-05
3.0222071e-05
1.9485341e-05
3.0472495e-05
1.9937583e-05
3.0583728e-05
2.0220683e-05
3.0084986e-05
2.5779378e-05
4.1749981e-05
2.5957639e-05
4.2004172e-05
2.6229333e-05
4.2336243e-05
2.6659907e-05
4.277683e-05
2.7328466e-05
4.3318918e-05
2.8228425e-05
4.3778569e-05
2.8876453e-05
4.3367771e-05
3.9888976e-05
6.0221548e-05
4.0164606e-05
6.0559113e-05
4.0595386e-05
6.1038227e-05
4.129851e-05
6.1768992e-05
4.2444066e-05
6.288651e-05
4.4144043e-05
6.4405149e-05
4.5657573e-05
6.5615319e-05
5.6530709e-05
6.6796571e-05
5.6490863e-05
6.6721757e-05
5.6594036e-05
6.673459e-05
5.6933161e-05
6.6886358e-05
5.7862037e-05
6.7472366e-05
6.0423909e-05
6.930911e-05
6.6121009e-05
7.3974513e-05
5.3998988e-05
5.7344469e-05
5.4038554e-05
5.7312744e-05
5.4169673e-05
5.7437306e-05
5.449067e-05
5.7871503e-05
5.5276716e-05
5.8975375e-05
5.7234794e-05
6.1534189e-05
6.1969579e-05
6.6035604e-05
3.54711e-05
3.3891924e-05
3.5493173e-05
3.3917768e-05
3.5548425e-05
3.4029698e-05
3.5705655e-05
3.4365096e-05
3.6149117e-05
3.5199131e-05
3.7402365e-05
3.7188745e-05
4.0656479e-05
4.0952931e-05
8.1897592e-06
6.7347544e-06
8.1554049e-06
6.686317e-06
8.1025437e-06
6.6433909e-06
8.0151362e-06
6.6409742e-06
7.9083838e-06
6.7314573e-06
7.8928337e-06
6.9784691e-06
8.2818414e-06
7.5297959e-06
6.7395697e-07
6.5469437e-07
6.5808491e-07
6.3131828e-07
6.3367213e-07
5.9563829e-07
5.9628972e-07
5.4052183e-07
5.4145647e-07
4.530219e-07
4.762592e-07
3.3647296e-07
4.3751654e-07
2.4283334e-07
2.6120256e-06
3.8929094e-06
2.6645713e-06
4.0941755e-06
2.5454521e-06
3.8231472e-06
2.5318925e-06
3.6563862e-06
1.5164367e-05
1.6301475e-05
1.5028465e-05
1.6361533e-05
1.4842777e-05
1.6385833e-05
1.5829537e-05
1.8536601e-05
3.0411234e-05
3.0379455e-05
3.0798841e-05
3.0752242e-05
3.17812e-05
3.1682156e-05
3.5455858e-05
3.5789958e-05
3.5658629e-05
3.5926851e-05
3.6366832e-05
3.6171799e-05
3.8075636e-05
3.7181053e-05
4.3053351e-05
4.2138054e-05
2.7759102e-05
2.6937733e-05
2.8011109e-05
2.7341485e-05
2.837468e-05
2.8253979e-05
2.940958e-05
3.0204984e-05
1.5481598e-05
1.2265412e-05
1.5484877e-05
1.3805027e-05
1.5454316e-05
1.6012476e-05
1.5775633e-05
1.6789534e-05
2.951423e-06
1.5814155e-06
3.4298111e-06
1.8310789e-06
4.1884622e-06
2.3811072e-06
4.8771591e-06
3.071457e-06
7.4125285e-07
4.4043934e-07
8.3523195e-07
4.8992688e-07
9.6881175e-07
5.8315111e-07
1.0611212e-06
6.6992823e-07
5.0144045e-07
3.2648617e-07
5.5854448e-07
3.5981836e-07
6.3423703e-07
4.1350372e-07
7.0411157e-07
4.6833861e-07
4.952786e-07
3.3435e-07
5.521782e-07
3.7029844e-07
6.1981392e-07
4.1912782e-07
6.8654116e-07
4.6993497e-07
5.2946846e-07