/*--------------------------------*- C++ -*----------------------------------*\
| =========                 |                                                 |
| \\      /  F ield         | OpenFOAM: The Open Source CFD Toolbox           |
|  \\    /   O peration     | Version:  2206                                  |
|   \\  /    A nd           | Website:  www.openfoam.com                      |
|    \\/     M anipulation  |                                                 |
\*---------------------------------------------------------------------------*/
FoamFile
{
    version     2.0;
    format      ascii;
    arch        "LSB;label=32;scalar=64";
    class       volScalarField;
    location    "200";
    object      k;
}
// * * * * * * * * * * * * * * * * * * * * * * * * * * * * * * * * * * * * * //

dimensions      [0 2 -2 0 0 0 0];

internalField   nonuniform List<scalar> 
50904
(
23.850869
39.925395
26.275402
45.812945
21.878179
25.776297
21.385828
24.091611
16.595843
15.400008
15.033849
13.382066
9.427473
7.8883308
7.8908723
6.3546982
3.3406212
2.7492025
2.5932493
2.0853228
0.67472461
0.57243444
0.5168025
0.42625235
0.10315902
0.087904478
0.082131422
0.068829869
0.023158002
0.02058253
0.020129659
0.017903141
0.011809189
0.011389855
0.011348943
0.01099908
0.010176701
0.010109498
0.010114959
0.010055412
0.0099863619
0.0099630666
0.0099778075
0.0099533566
0.0099728052
0.0099556667
0.0099696745
0.0099504126
0.0099757878
0.0099615438
0.0099731761
0.0099567187
0.0099803999
0.0099688549
0.0099780033
0.0099642159
0.0099856472
0.0099767006
0.0099835664
0.0099723312
0.0099907548
0.0099840686
0.0099890594
0.0099801207
0.0099949655
0.0099900689
0.0099936612
0.009986568
0.0099984686
0.0099949785
0.009997476
0.0099918787
0.01000116
0.0099988204
0.010000469
0.0099960837
0.010003227
0.010001791
0.01000284
0.0099994501
0.010004731
0.010004007
0.010004542
0.010002024
0.010005695
0.010005535
0.010005682
0.010003999
0.010006152
0.010006495
0.010006419
0.010005907
0.010006983
0.010008528
0.010009015
0.01001272
0.010014885
0.010023252
0.010030753
0.010057277
0.010090455
0.01014339
0.010206378
0.010359468
0.010753441
0.011086249
0.011495417
0.012311943
0.015920005
0.018087086
0.019988807
0.024296509
0.050501348
0.064881345
0.070416397
0.092596503
0.26253566
0.36005014
0.34559256
0.46076148
1.3546318
1.9018238
1.6530022
2.1967978
5.2797638
6.7760567
5.9501225
7.2472962
12.27654
13.507305
12.623863
13.364664
16.53579
17.074983
15.992444
16.089308
10.895619
11.419748
9.661809
10.349115
5.289382
5.4818539
4.8791637
5.6373333
26.820102
46.71707
23.950662
39.454093
21.218808
31.795081
19.193064
27.247273
17.789944
24.263073
16.797988
22.211263
16.058507
20.684867
20.648983
22.751727
19.675897
21.344967
18.972518
20.396713
18.445691
19.813891
18.114909
19.485797
17.908257
19.283218
17.770956
19.146469
14.012013
12.398729
13.607507
12.481105
13.940703
12.960796
14.218177
13.229117
14.385111
13.390734
14.479171
13.484758
14.538429
13.543541
6.8804302
5.6133238
6.5643862
5.6150057
7.0006252
6.0078954
7.3613967
6.2195789
7.5789808
6.3172529
7.6999275
6.3892811
7.7650891
6.4473203
2.2126231
1.83614
2.1568757
1.8859798
2.3267727
2.0183865
2.4392043
2.0744385
2.4989679
2.0949379
2.530743
2.1018928
2.5496808
2.1035489
0.45594828
0.38275362
0.45099431
0.38870163
0.47231175
0.40257153
0.4816952
0.40562442
0.48498012
0.40584998
0.48612128
0.405456
0.48678007
0.40500598
0.075057998
0.063217748
0.071641579
0.060630376
0.071657454
0.060106788
0.071364294
0.059617977
0.07110002
0.059373291
0.070916078
0.059254489
0.07078017
0.059188161
0.018962105
0.01693395
0.017970947
0.016073939
0.017728054
0.01587367
0.017594269
0.015782077
0.01752234
0.015745782
0.017480154
0.015729612
0.017452294
0.015720489
0.011170785
0.010854476
0.011018023
0.010730502
0.01098173
0.01071318
0.010965465
0.010708337
0.010957981
0.010708143
0.010954068
0.010708967
0.01095166
0.010709832
0.010092119
0.010036978
0.010080119
0.010033304
0.010080168
0.010043598
0.010081436
0.010049773
0.010082669
0.010053618
0.010083689
0.010056233
0.010084513
0.010058205
0.0099762432
0.00995182
0.0099832413
0.0099634927
0.009988296
0.0099770911
0.0099918327
0.0099843949
0.0099941845
0.009988584
0.0099958355
0.0099913537
0.0099970758
0.0099934374
0.0099698791
0.0099501289
0.0099779306
0.0099619213
0.0099832601
0.0099750739
0.009986892
0.0099820676
0.0099892774
0.0099860628
0.0099909452
0.0099887602
0.0099921862
0.0099907659
0.009973405
0.0099562471
0.0099808251
0.0099668275
0.0099858067
0.0099789882
0.0099892457
0.0099854059
0.0099914965
0.0099891865
0.0099930479
0.0099917481
0.0099941952
0.009993605
0.0099781842
0.0099635445
0.0099848365
0.0099729531
0.0099895121
0.009983964
0.0099927393
0.0099898932
0.0099948172
0.0099934526
0.0099962342
0.009995819
0.0099972744
0.0099975073
0.0099837557
0.0099715207
0.0099895818
0.0099798854
0.0099939432
0.009989759
0.0099969269
0.0099952039
0.0099988139
0.0099984826
0.010000085
0.010000628
0.010000999
0.010002135
0.0099893993
0.0099793927
0.009994516
0.0099869783
0.0099985165
0.0099957717
0.01000121
0.010000697
0.010002894
0.010003651
0.010004009
0.010005556
0.010004794
0.010006865
0.0099942013
0.009986045
0.0099987797
0.0099931184
0.010002434
0.010000965
0.010004857
0.010005393
0.010006356
0.010008046
0.010007334
0.010009735
0.010008008
0.01001087
0.0099981871
0.0099916267
0.010002343
0.009998306
0.01000567
0.010005305
0.010007848
0.010009269
0.010009184
0.010011649
0.010010044
0.010013146
0.010010628
0.010014137
0.010001404
0.0099962336
0.010005275
0.010002654
0.010008286
0.010008883
0.010010228
0.010012404
0.01001141
0.010014521
0.010012163
0.010015844
0.010012678
0.010016721
0.01000394
0.0099999938
0.010007557
0.010006171
0.010010267
0.010011698
0.01001199
0.010014815
0.010013042
0.0100167
0.010013713
0.010017886
0.010014173
0.010018675
0.010005765
0.0100029
0.010009141
0.010008836
0.010011596
0.010013782
0.010013142
0.010016569
0.010014089
0.010018272
0.010014693
0.010019349
0.010015109
0.010020073
0.010006963
0.010005132
0.010010119
0.010010986
0.01001236
0.01001556
0.010013762
0.010018123
0.010014622
0.010019699
0.010015175
0.010020705
0.010015554
0.01002138
0.010007947
0.010007898
0.010011202
0.010014941
0.010013456
0.010020184
0.010014853
0.010023107
0.0100157
0.010024892
0.010016242
0.010026027
0.010016618
0.01002679
0.010012626
0.010020665
0.010018352
0.010037821
0.010022237
0.010051027
0.010024669
0.010058854
0.01002612
0.010063539
0.010027037
0.010066484
0.010027656
0.010068467
0.010050099
0.010103711
0.010074734
0.010190354
0.010092151
0.010264762
0.010103526
0.010312737
0.010110232
0.010341737
0.010114327
0.010359748
0.010116995
0.010371707
0.010330348
0.010636651
0.010483612
0.01118213
0.010603885
0.011711491
0.010689072
0.012082558
0.010741106
0.012318254
0.010772972
0.012466834
0.010793401
0.012564778
0.012213977
0.013797357
0.013092365
0.016947323
0.013865743
0.02031343
0.014450462
0.022832021
0.01482431
0.024491216
0.015058323
0.025553576
0.015208646
0.026252507
0.023518357
0.030760546
0.027628628
0.045838703
0.031759365
0.062990739
0.034969816
0.076111904
0.037034692
0.084788392
0.038319607
0.090330698
0.039132933
0.093945039
0.084783608
0.11472082
0.1009187
0.17725697
0.1212462
0.25538173
0.13798574
0.31586109
0.14902637
0.35563855
0.15594084
0.381158
0.16030218
0.39753289
0.38728073
0.49333554
0.42393034
0.67794579
0.50113341
0.95505096
0.57325732
1.1811639
0.6232586
1.3333324
0.65460003
1.4314089
0.67493866
1.4946164
1.7473712
2.1167466
1.728136
2.4121439
1.9434609
3.1554699
2.2021418
3.83911
2.4125017
4.3196484
2.5470242
4.6214267
2.6292793
4.8123197
6.1226439
6.7821063
5.9222748
6.8242889
6.2825925
7.9998116
6.9681381
9.308995
7.5440298
10.228053
7.9246562
10.780208
8.1534813
11.095763
12.670441
12.738837
12.531723
12.715531
12.825227
13.661638
13.442387
14.814146
13.972154
15.566672
14.29953
15.94176
14.481919
16.132062
15.728567
15.496578
15.901659
15.658902
16.201046
16.105458
16.415242
16.363009
16.534069
16.417424
16.572456
16.374606
16.58062
16.31963
9.4501997
10.742834
9.9740481
11.081669
10.27237
10.526892
9.9188756
9.5475069
9.3985728
8.706358
9.0058619
8.1622823
8.7640673
7.8383044
4.9047307
7.0784452
5.1365449
7.349204
5.1586593
6.76601
4.9161988
6.0511564
4.5880719
5.4586691
4.3098194
5.0558663
4.1074612
4.7826558
15.462588
19.444565
14.906421
18.24765
14.480214
17.360975
14.062269
16.490532
13.518819
15.340407
12.610179
13.385073
17.67022
19.04369
17.581546
18.950409
17.523652
18.88975
17.475443
18.835368
17.418657
18.76558
17.319845
18.629469
14.577645
13.583798
14.607831
13.616905
14.627715
13.639218
14.644249
13.657573
14.659109
13.673836
14.665612
13.678641
7.8042343
6.4922932
7.8347819
6.5362561
7.8542421
6.5648503
7.8694959
6.5896244
7.8834192
6.6145619
7.8978062
6.6321423
2.564629
2.103151
2.5769808
2.1038693
2.5828584
2.1053189
2.5853683
2.105839
2.5848001
2.1062559
2.5799145
2.1081054
0.48685742
0.40469284
0.48704269
0.40509513
0.48733462
0.40530912
0.48726315
0.40535146
0.48664756
0.40523247
0.48475498
0.40478158
0.070644063
0.059135769
0.070522101
0.059088342
0.070392973
0.059053694
0.070244155
0.059018144
0.070034118
0.058958344
0.069645888
0.058821859
0.017431274
0.015712981
0.017411748
0.015706391
0.01739656
0.015701477
0.01737988
0.015695986
0.017354321
0.015687144
0.017301974
0.015668189
0.010949868
0.010710411
0.01094816
0.010711006
0.010946732
0.010711404
0.010945085
0.010711712
0.010942442
0.010711943
0.010936888
0.010712038
0.010085194
0.010059764
0.010085895
0.010061336
0.010086423
0.010062523
0.01008694
0.010063715
0.010087536
0.010065272
0.010088431
0.010068029
0.0099980755
0.0099950831
0.0099990809
0.0099967345
0.0099998571
0.0099979928
0.010000635
0.0099992686
0.010001616
0.01000094
0.010003264
0.010003919
0.0099931698
0.0099923203
0.0099941563
0.0099938912
0.0099949157
0.0099950867
0.0099956863
0.0099963005
0.0099966626
0.0099978954
0.0099982941
0.010000726
0.0099950875
0.0099950213
0.0099959952
0.0099964655
0.0099966966
0.0099975628
0.0099974106
0.0099986726
0.0099983085
0.010000111
0.009999812
0.010002674
0.0099980659
0.0099987739
0.00999887
0.010000066
0.0099994946
0.010001055
0.010000133
0.010002049
0.010000937
0.01000332
0.01000228
0.010005572
0.01000168
0.010003241
0.010002362
0.010004357
0.010002897
0.01000522
0.010003448
0.010006085
0.010004143
0.01000718
0.010005307
0.010009092
0.010005364
0.010007801
0.010005934
0.010008741
0.010006386
0.010009471
0.010006854
0.010010206
0.010007448
0.010011136
0.010008442
0.010012751
0.010008487
0.010011661
0.010008968
0.010012457
0.010009354
0.010013079
0.010009757
0.010013708
0.01001027
0.010014509
0.010011129
0.010015899
0.010011034
0.010014811
0.010011447
0.010015495
0.010011782
0.010016033
0.010012135
0.010016581
0.010012585
0.010017282
0.010013339
0.0100185
0.010013031
0.010017313
0.010013393
0.010017914
0.01001369
0.010018388
0.010014004
0.010018877
0.010014405
0.010019502
0.01001508
0.010020588
0.010014489
0.01001921
0.010014812
0.01001975
0.010015079
0.010020179
0.010015364
0.010020624
0.010015731
0.010021199
0.010016355
0.010022202
0.010015396
0.010020569
0.010015688
0.010021066
0.010015931
0.010021464
0.010016193
0.010021882
0.010016538
0.010022424
0.010017138
0.010023374
0.010015815
0.010021837
0.010016086
0.010022307
0.010016315
0.010022691
0.010016569
0.010023098
0.010016907
0.010023629
0.010017492
0.010024557
0.010016876
0.010027313
0.010017151
0.010027862
0.010017388
0.010028329
0.010017654
0.010028834
0.01001801
0.010029494
0.010018634
0.010030642
0.010028094
0.010069891
0.010028566
0.010071406
0.010028996
0.010072766
0.01002948
0.010074245
0.010030148
0.010076209
0.010031338
0.010079622
0.010118872
0.010380309
0.010121009
0.010389715
0.010123022
0.01039824
0.01012531
0.010407517
0.010128514
0.010419875
0.010134311
0.010441433
0.010807492
0.012634104
0.010823133
0.012708185
0.0108379
0.01277477
0.010854695
0.012847028
0.010878267
0.012943676
0.010920987
0.01311363
0.015311194
0.026740938
0.015423434
0.027264121
0.015528876
0.027731222
0.015648594
0.028238051
0.015817074
0.02892071
0.016124781
0.030136941
0.039679387
0.096457476
0.040312873
0.099203427
0.040907191
0.10165032
0.041576682
0.10428937
0.04250854
0.10781044
0.044190502
0.11403295
0.16320217
0.40889308
0.16654243
0.42120422
0.16965492
0.43220059
0.17312571
0.44400813
0.17789259
0.45952117
0.18634148
0.48645849
0.68839401
1.5374897
0.70352515
1.5828074
0.71748176
1.6233678
0.73291794
1.6668502
0.75410237
1.7237629
0.7919079
1.8208076
2.6821934
4.9347005
2.7372333
5.0539424
2.7868994
5.1558954
2.8401464
5.2619974
2.9099574
5.398608
3.026681
5.6306678
8.2919363
11.279573
8.4159327
11.435957
8.5202978
11.560272
8.6253438
11.686459
8.7560217
11.848975
8.9667075
12.126243
14.585306
16.23301
14.672481
16.315055
14.745322
16.382498
14.820599
16.453229
14.920211
16.553629
15.092775
16.739957
16.582013
16.273585
16.583028
16.228073
16.588171
16.195633
16.600252
16.170768
16.627406
16.157075
16.688511
16.164466
8.6217084
7.6433685
8.5100163
7.4751539
8.4298543
7.3471198
8.360561
7.2265809
8.2855371
7.0857681
8.1782809
6.8767937
3.9649266
4.5997414
3.8456282
4.4353122
3.7502686
4.304311
3.6611488
4.1756441
3.554739
4.0121611
3.397059
3.7557475
11.24061
10.666579
10.296652
9.079432
9.9493631
8.7006899
9.7872356
8.5501244
9.6795058
8.4536244
9.5833077
8.3788154
17.06824
18.220951
16.833346
17.853262
16.743121
17.726357
16.703501
17.659549
16.681045
17.623168
16.661094
17.594083
14.630993
13.634537
14.592548
13.612643
14.577485
13.610437
14.575747
13.611484
14.580303
13.61521
14.585707
13.622526
7.9070992
6.6515816
7.9165533
6.6904557
7.9225927
6.7134469
7.9292584
6.7281726
7.93535
6.7397284
7.9428716
6.751331
2.5707377
2.1080819
2.5671029
2.1112073
2.5707024
2.1154857
2.5747125
2.118029
2.578067
2.1200814
2.5810491
2.121717
0.48100736
0.40368956
0.47567779
0.40208773
0.47457414
0.40214459
0.47430098
0.40233059
0.47416883
0.4025479
0.4740528
0.40279246
0.068728231
0.058443493
0.067782104
0.058038798
0.067498317
0.057942415
0.067365277
0.057903209
0.067278017
0.05788314
0.067199095
0.057867609
0.017175709
0.01561872
0.017054764
0.015566088
0.017014269
0.015550869
0.016995533
0.015544474
0.016983554
0.015540964
0.016973029
0.015538378
0.010923404
0.010710929
0.010909904
0.010707438
0.010905152
0.010706208
0.01090293
0.010705671
0.01090151
0.010705374
0.010900265
0.010705143
0.010089896
0.010073548
0.010090703
0.010077213
0.010091027
0.010078392
0.01009125
0.010078997
0.010091444
0.010079433
0.01009163
0.010079832
0.010006468
0.010010122
0.010008995
0.010014755
0.010009949
0.010016313
0.010010485
0.010017116
0.010010894
0.010017696
0.010011277
0.01001823
0.010001521
0.010006672
0.01000416
0.010011299
0.010005174
0.010012904
0.010005744
0.010013745
0.010006178
0.010014358
0.010006587
0.010014926
0.010002775
0.010008098
0.010005245
0.010012417
0.010006218
0.010013959
0.010006771
0.01001478
0.010007194
0.010015382
0.010007596
0.010015943
0.010004902
0.0100103
0.010007111
0.010014141
0.010008006
0.010015559
0.010008522
0.010016323
0.01000892
0.010016886
0.010009299
0.010017415
0.010007535
0.010013039
0.010009428
0.010016297
0.010010222
0.010017535
0.010010683
0.010018214
0.01001104
0.010018719
0.010011378
0.010019194
0.010010294
0.010015998
0.010011875
0.010018703
0.010012562
0.010019767
0.010012962
0.010020354
0.010013273
0.010020795
0.01001357
0.010021211
0.010012684
0.010018621
0.010014017
0.0100209
0.010014612
0.010021822
0.010014962
0.010022335
0.010015231
0.010022719
0.010015491
0.010023084
0.01001467
0.010020828
0.010015825
0.010022811
0.010016352
0.010023624
0.010016662
0.010024078
0.010016901
0.010024416
0.010017133
0.010024737
0.010016261
0.010022636
0.01001733
0.01002448
0.010017799
0.010025194
0.010018076
0.010025592
0.010018287
0.010025887
0.010018489
0.010026167
0.01001744
0.010024051
0.010018492
0.010025861
0.010018913
0.010026494
0.010019163
0.010026849
0.010019355
0.010027113
0.01001954
0.010027367
0.010018167
0.010025069
0.010019211
0.010026873
0.0100196
0.010027453
0.010019832
0.010027779
0.010020011
0.010028024
0.010020186
0.010028262
0.010018461
0.010026162
0.01001949
0.010027971
0.010019871
0.010028543
0.010020099
0.010028871
0.010020278
0.010029122
0.010020452
0.010029367
0.010019639
0.010032557
0.010020721
0.010034785
0.010021142
0.010035539
0.010021398
0.010035991
0.010021598
0.010036344
0.010021789
0.010036684
0.010033296
0.010085407
0.010035517
0.010092491
0.010036453
0.010095077
0.01003701
0.010096665
0.010037443
0.010097955
0.01003785
0.010099208
0.010143923
0.010478225
0.010155227
0.010523242
0.010160205
0.010539646
0.0101631
0.010549517
0.010165294
0.010557424
0.010167315
0.010564956
0.010990739
0.013407608
0.011074309
0.013772474
0.011110967
0.013903332
0.01113162
0.013979292
0.011146789
0.014038282
0.011160278
0.014093
0.016636593
0.032301502
0.017282737
0.035102363
0.017576993
0.036134072
0.017742667
0.036723966
0.017863771
0.037174399
0.017972872
0.037594502
0.04694656
0.12497403
0.050405193
0.13925114
0.052034407
0.14461083
0.052986332
0.14762572
0.053680139
0.14988148
0.054305476
0.15194406
0.19977857
0.53289188
0.21606988
0.59317052
0.22379062
0.61593378
0.22836441
0.62854581
0.2316654
0.63785413
0.23458551
0.64618704
0.85051862
1.9865157
0.91845294
2.2047014
0.9529298
2.2896798
0.97291856
2.3364504
0.98729094
2.3705761
1.0000053
2.4008856
3.2064332
6.0167889
3.43547
6.5236839
3.5507241
6.7251503
3.6165848
6.8352107
3.6640632
6.9142874
3.7059155
6.9840561
9.276431
12.580509
9.6576235
13.163994
9.8517937
13.390363
9.9606747
13.512332
10.038001
13.599786
10.106472
13.678196
15.360165
17.057655
15.704355
17.469998
15.870238
17.627492
15.961555
17.712612
16.026423
17.774598
16.084825
17.833267
16.805004
16.216501
16.990072
16.347156
17.067816
16.392173
17.105972
16.409609
17.131762
16.420713
17.157158
16.434578
8.0361828
6.5979476
7.9476414
6.4011533
7.8959858
6.3089396
7.8507897
6.2398737
7.8146855
6.1859385
7.7836821
6.1386078
3.1969775
3.4005751
3.0679663
3.1364521
3.0100731
3.0036037
2.9629897
2.9074922
2.9183941
2.8297763
2.870056
2.7533368
9.4834022
8.3348673
9.3945853
8.3477538
9.3121021
8.4305073
9.2428143
8.6463708
9.1945882
9.1431285
9.2330881
10.268187
9.8188256
13.255924
16.632936
17.557251
16.600903
17.515096
16.569637
17.469772
16.532316
17.407757
16.473913
17.31176
16.385145
17.18504
16.244773
17.036177
14.587574
13.629729
14.589805
13.639106
14.591186
13.644795
14.591777
13.640942
14.585711
13.607909
14.58252
13.528843
14.605854
13.383344
7.953531
6.7700682
7.9652507
6.7926533
7.9770081
6.8156319
7.9925985
6.839862
8.017557
6.8637631
8.0590386
6.8812291
8.1572444
6.8914653
2.5851271
2.1234357
2.5937666
2.1315978
2.6009544
2.1424031
2.6104018
2.1567349
2.625374
2.1787914
2.6545901
2.2045329
2.7171773
2.2241405
0.47398909
0.40312095
0.4744201
0.40372471
0.4759487
0.40486066
0.47700992
0.40622675
0.47910475
0.40772329
0.48369189
0.40974735
0.49368602
0.41349443
0.067109371
0.057848338
0.067053673
0.057855658
0.066999975
0.057842805
0.067085455
0.057827626
0.067113065
0.057797907
0.067290964
0.05779101
0.067817371
0.05785974
0.016961151
0.015536192
0.016954893
0.015537258
0.016950411
0.015538336
0.016946782
0.015539203
0.016947483
0.015540122
0.01695775
0.015540102
0.016992534
0.015532136
0.010898887
0.010704939
0.010898087
0.010704988
0.010897486
0.010704986
0.010896972
0.010704807
0.010896677
0.010704257
0.010897024
0.010702614
0.010898043
0.010696602
0.010091857
0.010080302
0.010092059
0.010080674
0.010092289
0.010081012
0.010092538
0.010081284
0.010092826
0.010081396
0.010093099
0.010080932
0.010092461
0.01007788
0.010011737
0.010018869
0.010012125
0.010019383
0.010012539
0.010019886
0.010012995
0.010020371
0.010013542
0.010020812
0.010014149
0.010020937
0.010014005
0.010018989
0.010007083
0.010015613
0.01000751
0.010016181
0.010007978
0.01001676
0.010008513
0.010017363
0.010009183
0.010018009
0.010009993
0.010018481
0.010010191
0.01001712
0.010008083
0.010016621
0.010008516
0.010017202
0.010009004
0.010017821
0.010009582
0.010018511
0.010010325
0.010019303
0.010011254
0.010020002
0.010011641
0.010019056
0.010009757
0.010018056
0.010010175
0.010018628
0.010010663
0.010019268
0.01001126
0.010020015
0.010012047
0.010020911
0.010013045
0.010021762
0.010013513
0.010021054
0.010011783
0.010019777
0.010012164
0.010020314
0.010012628
0.010020945
0.01001322
0.010021712
0.010014019
0.010022663
0.010015032
0.010023587
0.010015492
0.010023004
0.01001392
0.010021716
0.010014255
0.010022194
0.01001468
0.010022786
0.010015241
0.010023533
0.010016014
0.010024484
0.010016975
0.010025392
0.010017329
0.010024824
0.010015795
0.010023526
0.010016085
0.010023941
0.010016468
0.010024474
0.010016985
0.010025172
0.010017708
0.010026081
0.010018588
0.010026936
0.010018829
0.010026361
0.010017402
0.010025125
0.010017651
0.010025482
0.010017989
0.010025957
0.010018456
0.010026599
0.010019117
0.010027447
0.010019912
0.010028247
0.010020075
0.010027707
0.010018728
0.010026511
0.010018951
0.010026831
0.010019249
0.010027253
0.010019659
0.010027823
0.010020242
0.010028585
0.010020951
0.010029336
0.010021126
0.01002895
0.01001976
0.010027684
0.010019963
0.010027978
0.010020228
0.010028355
0.010020587
0.010028855
0.010021095
0.010029529
0.01002174
0.010030251
0.010021996
0.010030072
0.010020395
0.010028561
0.010020586
0.010028834
0.010020826
0.010029174
0.010021145
0.010029616
0.010021593
0.010030215
0.01002219
0.010030909
0.010022554
0.010030952
0.010020655
0.010029666
0.010020829
0.010029927
0.010021052
0.01003025
0.010021349
0.010030671
0.010021774
0.01003125
0.010022361
0.010031964
0.010022821
0.010032196
0.010022009
0.010037082
0.010022191
0.010037427
0.010022428
0.010037856
0.01002275
0.010038415
0.010023214
0.010039189
0.010023854
0.010040179
0.010024382
0.010040784
0.010038308
0.010100633
0.010038673
0.010101818
0.010039148
0.010103294
0.010039791
0.010105242
0.010040707
0.010107961
0.010041905
0.010111602
0.010042681
0.0101148
0.01016948
0.010573043
0.010171411
0.010580842
0.010173956
0.01059081
0.01017753
0.010604416
0.010182646
0.010623691
0.010189129
0.010649285
0.010192292
0.010670194
0.011173849
0.014149304
0.011187243
0.01420485
0.011205356
0.014276334
0.01123125
0.014373653
0.011268106
0.014506395
0.011311642
0.014663251
0.011317872
0.014718335
0.018088261
0.038047269
0.018180057
0.038399276
0.0183078
0.038851692
0.018496195
0.039456978
0.018769544
0.040216323
0.019090035
0.040956501
0.019121018
0.040583536
0.054975121
0.15409978
0.055524172
0.15596132
0.05632107
0.15839782
0.057536333
0.16158712
0.059357579
0.16530008
0.06164437
0.16817644
0.062656628
0.16450738
0.23757913
0.65436049
0.24036648
0.66199596
0.244521
0.67191074
0.25096288
0.68451605
0.26072322
0.69829727
0.27303958
0.70517398
0.27903212
0.68169907
1.0131344
2.4307361
1.0261036
2.4587483
1.0461239
2.4957447
1.0782964
2.5451762
1.1291504
2.6057821
1.1989845
2.6550585
1.2496688
2.6078237
3.74754
7.0527826
3.7907228
7.1186639
3.8586027
7.2089357
3.9705224
7.3404493
4.1560915
7.5286214
4.4396305
7.7542227
4.7059868
7.8880019
10.174001
13.758658
10.241191
13.837158
10.348427
13.953212
10.530513
14.136616
10.844507
14.432928
11.372525
14.901285
12.111837
15.581877
16.147637
17.901126
16.209148
17.96932
16.309638
18.080045
16.485681
18.273386
16.804596
18.625608
17.392505
19.293439
18.407271
20.465944
17.192181
16.461543
17.226129
16.492829
17.289609
16.565365
17.417937
16.730656
17.696723
17.101102
18.321379
17.94855
19.631427
19.652473
7.7530643
6.0930743
7.7242594
6.0593535
7.6823082
6.0287353
7.6211937
6.0219797
7.5671756
6.0872283
7.6496307
6.3219338
8.2216495
6.9587076
2.8131547
2.6635732
2.7532773
2.5745427
2.6601624
2.4375243
2.5178882
2.2253069
2.311541
1.8862837
2.077988
1.4331578
1.9918043
1.0815601
10.569731
15.45597
10.956716
16.626049
10.710481
15.997611
11.017827
15.906864
16.078871
17.060454
15.99637
17.286057
16.033552
17.869466
17.556219
20.645785
14.722276
13.451281
15.052532
13.828923
15.820366
14.961726
17.725326
17.499281
8.3999051
7.0817493
8.8083684
7.4666333
9.5457531
8.3764705
10.7984
10.017787
2.8195923
2.3099791
2.990847
2.4761848
3.2655814
2.8368074
3.6535661
3.4230061
0.50784582
0.42741897
0.53680478
0.45822576
0.57818669
0.52109467
0.62470646
0.61260397
0.068562288
0.058795636
0.071138572
0.061745565
0.073941774
0.067097412
0.074685227
0.072627861
0.016982097
0.015549622
0.017148449
0.015745454
0.017143541
0.015976236
0.016409774
0.015693289
0.010882987
0.010683833
0.010880773
0.010685214
0.010822876
0.010658343
0.010614469
0.010513001
0.010087286
0.010070441
0.010082844
0.01006418
0.010070847
0.010053204
0.010041474
0.010028472
0.010011588
0.010013698
0.01000858
0.01000815
0.010004575
0.010001798
0.0099983577
0.0099938779
0.010008431
0.010012545
0.01000577
0.010007424
0.010002446
0.010001615
0.0099978321
0.0099948949
0.010010102
0.010014919
0.01000758
0.010010191
0.010004285
0.01000465
0.0099996481
0.0099980316
0.010012072
0.010017284
0.010009731
0.010013076
0.010006571
0.010008029
0.010001957
0.010001685
0.010014138
0.01001964
0.010012028
0.010015989
0.010009099
0.010011511
0.010004659
0.010005665
0.010015972
0.010021751
0.010014
0.010018509
0.010011257
0.010014522
0.010007047
0.010009254
0.010017479
0.010023527
0.010015596
0.010020562
0.01001301
0.010016959
0.010009045
0.010012184
0.010018749
0.010025068
0.010016917
0.010022281
0.010014421
0.010018925
0.010010605
0.010014489
0.010019843
0.010026501
0.01001807
0.010023879
0.010015588
0.010020628
0.010011766
0.010016268
0.010020836
0.010027891
0.010019142
0.010025401
0.010016587
0.010022097
0.01001262
0.010017665
0.010021565
0.010029084
0.010019924
0.010026661
0.010017272
0.010023227
0.010013168
0.010018712
0.010022073
0.010030714
0.010020408
0.010028089
0.010017621
0.010024222
0.010013349
0.010019502
0.010023733
0.010039621
0.010021545
0.010035012
0.010018234
0.010028017
0.010013679
0.010022173
0.010040862
0.010112389
0.010034204
0.010090896
0.010026227
0.010057474
0.010019505
0.010042096
0.010182682
0.010656505
0.010141639
0.010498641
0.010096171
0.01026599
0.010070267
0.010178578
0.011229696
0.014450842
0.010955536
0.013285418
0.010635414
0.011662195
0.010455481
0.011064063
0.018298986
0.037699838
0.016529508
0.030527788
0.014356742
0.020326474
0.013048447
0.016358101
0.059810681
0.1539949
0.049636267
0.12007055
0.036856662
0.068760493
0.028648476
0.045361359
0.27123409
0.64719643
0.22279719
0.51943329
0.15824034
0.30908467
0.11362091
0.19511367
1.2256867
2.4894974
1.0134344
2.0525595
0.72632163
1.3354497
0.5119764
0.8695852
4.6082445
7.6818314
3.9042784
6.5864021
2.9420026
4.8489943
2.1356913
3.4615144
11.996205
15.602001
10.753972
14.376871
8.918302
12.162561
7.0547102
9.9288301
18.804869
20.722112
18.081358
20.041144
16.600054
18.535855
14.720339
16.989956
20.343409
20.346468
20.272824
20.400211
19.677515
19.975763
18.709011
19.562462
8.9330855
7.4312236
9.3199752
7.9535519
9.7270659
8.7684141
10.332766
9.8885784
2.0997169
1.0308749
2.3489111
1.2072934
2.8460276
1.8708407
3.5023232
2.6904798
34.911027
22.337507
29.986492
19.447377
30.966766
21.739183
27.689025
22.853178
27.002108
21.816993
33.030949
28.066789
17.333925
18.008091
18.380075
18.461651
22.412337
22.064832
9.101899
10.337455
10.477262
11.414231
12.364715
12.656703
3.2533213
3.7369479
4.2318829
4.6355235
5.1071105
5.0885947
0.68025415
0.74867587
1.0061303
1.0684969
1.4330557
1.4091403
0.099946852
0.11075523
0.17992205
0.19540178
0.39016254
0.39164566
0.021884375
0.02388122
0.038897575
0.042844343
0.12996744
0.13328507
0.011548279
0.011884823
0.015767293
0.016799381
0.048043917
0.049108491
0.010136314
0.010191987
0.011028415
0.01123814
0.022740899
0.022900645
0.0099720933
0.0099925592
0.010166512
0.010214684
0.01371936
0.013778528
0.0099622722
0.0099774053
0.010006881
0.010024105
0.010996473
0.011007974
0.0099675584
0.0099799377
0.0099820136
0.0099922079
0.010250232
0.010246901
0.0099743267
0.0099840826
0.0099820307
0.0099891238
0.010041554
0.010041619
0.0099815006
0.0099887219
0.0099871113
0.0099917896
0.0099962293
0.0099966064
0.0099881395
0.0099931606
0.009992152
0.0099948869
0.0099891349
0.009988854
0.0099933659
0.0099966838
0.0099961202
0.0099974715
0.0099890902
0.0099881431
0.0099975841
0.0099996079
0.0099993744
0.0099996743
0.0099896726
0.0099882591
0.010000723
0.010001784
0.010002089
0.010001683
0.0099909254
0.0099889091
0.010003101
0.010003419
0.010003894
0.010002916
0.0099925987
0.0099899037
0.010004946
0.010004687
0.010005528
0.010004128
0.0099937912
0.0099906479
0.010006173
0.010005437
0.010006634
0.010004837
0.0099947762
0.0099911813
0.010006796
0.010005634
0.01000709
0.010004975
0.0099954723
0.009991541
0.010007737
0.010005953
0.010007477
0.010005015
0.0099957924
0.0099916265
0.010016427
0.010010166
0.010011345
0.010006467
0.0099966391
0.0099918131
0.010099084
0.010058763
0.010053493
0.010027937
0.010006859
0.0099961301
0.010819273
0.010539082
0.01045851
0.010269981
0.010121423
0.010054738
0.016609194
0.014615102
0.013984495
0.0125508
0.011262542
0.010699835
0.056158239
0.042573883
0.039790623
0.02995319
0.020930277
0.016450011
0.30501096
0.21158756
0.21471647
0.14466879
0.094338927
0.058655884
1.6147725
1.0486658
1.2296914
0.78045662
0.5827021
0.34160367
6.1513812
4.4934289
5.1054357
3.5438554
3.0760375
1.9733337
13.145441
11.379942
12.042334
9.9551377
10.333891
7.8930877
17.51963
16.447595
17.079896
15.617368
19.809584
17.711392
12.749704
12.121057
13.408868
12.668403
21.519733
20.74477
5.838459
6.1046451
6.1084965
6.5524868
9.9726499
10.884212
15.510197
4.3187389
4.9068484
6.8986182
9.9217647
15.405659
14.703863
4.2109467
5.0278675
7.2828496
10.773866
17.126425
5.5199573
7.8361928
10.493748
12.477938
14.837295
18.056381
5.5659286
8.024247
10.419249
12.530893
15.11228
18.378663
1.9928233
8.3538291
14.455385
16.401593
16.887644
16.932918
2.2108834
8.9239737
14.048304
15.497693
15.831302
15.708969
0.68689947
2.990782
6.7232005
9.3476917
10.410273
10.307187
0.7665699
3.5257035
6.9353719
8.9347021
9.4485245
8.974773
0.24501602
0.85775485
1.8415271
2.8018737
3.4564149
3.6253691
0.27473464
0.99103494
1.8848635
2.6439333
3.0054473
2.9506482
0.084529921
0.22676869
0.39249317
0.53635839
0.65338131
0.70681852
0.094718415
0.24821372
0.37341089
0.48263857