/*--------------------------------*- C++ -*----------------------------------*\
| =========                 |                                                 |
| \\      /  F ield         | OpenFOAM: The Open Source CFD Toolbox           |
|  \\    /   O peration     | Version:  2206                                  |
|   \\  /    A nd           | Website:  www.openfoam.com                      |
|    \\/     M anipulation  |                                                 |
\*---------------------------------------------------------------------------*/
FoamFile
{
    version     2.0;
    format      ascii;
    arch        "LSB;label=32;scalar=64";
    class       volScalarField;
    location    "200";
    object      nut;
}
// * * * * * * * * * * * * * * * * * * * * * * * * * * * * * * * * * * * * * //

dimensions      [0 2 -1 0 0 0 0];

internalField   nonuniform List<scalar> 
50904
(
4.6207906e-06
7.6648273e-06
5.1082525e-06
8.8304424e-06
1.6390276e-05
1.9225975e-05
1.567449e-05
1.8100325e-05
3.0734584e-05
3.0842015e-05
2.7895322e-05
2.8166111e-05
3.489548e-05
3.2435334e-05
3.1126254e-05
2.8630146e-05
2.4032986e-05
2.3098154e-05
2.1131552e-05
2.0231071e-05
1.3454845e-05
1.0166416e-05
1.0545494e-05
5.7393318e-06
2.5404639e-06
1.4210003e-06
1.6806304e-06
9.2902044e-07
5.7691396e-07
3.4523147e-07
4.189867e-07
2.5240007e-07
3.0301368e-07
2.0153819e-07
2.4429025e-07
1.6403719e-07
2.7185944e-07
1.9057649e-07
2.2754891e-07
1.6036543e-07
2.7971615e-07
2.0189643e-07
2.3548564e-07
1.7075903e-07
2.9773265e-07
2.1998966e-07
2.513737e-07
1.860161e-07
3.2153797e-07
2.4292365e-07
2.7179491e-07
2.0497231e-07
3.5378895e-07
2.7312017e-07
2.9939555e-07
2.2975009e-07
3.9884842e-07
3.1384225e-07
3.374241e-07
2.6255469e-07
4.5354104e-07
3.6161358e-07
3.8245807e-07
2.9957672e-07
5.1532935e-07
4.1411819e-07
4.3220339e-07
3.3906289e-07
5.828145e-07
4.6993616e-07
4.8391212e-07
3.7898724e-07
6.6262191e-07
5.3278262e-07
5.4012239e-07
4.2048043e-07
7.5047891e-07
6.011188e-07
5.9583252e-07
4.6015305e-07
8.3946918e-07
6.7084688e-07
6.5439475e-07
5.0116047e-07
9.345564e-07
7.4760471e-07
7.1513052e-07
5.4479768e-07
1.0174172e-06
8.1431591e-07
7.6687851e-07
5.8475768e-07
1.07361e-06
8.5772931e-07
8.0797077e-07
6.1779468e-07
1.1105371e-06
8.8467974e-07
8.3676679e-07
6.4187201e-07
1.1433553e-06
9.0529594e-07
8.7066742e-07
6.7537204e-07
1.2344104e-06
9.927873e-07
9.9817479e-07
8.0740341e-07
1.8488326e-06
1.6025028e-06
1.7741736e-06
1.5397202e-06
5.9461337e-06
5.6719889e-06
6.4039834e-06
5.8354428e-06
1.0912926e-05
1.2447854e-05
1.2085509e-05
1.3688656e-05
1.744119e-05
2.1247853e-05
1.9310081e-05
2.2960563e-05
2.9119867e-05
3.5953303e-05
3.1492188e-05
3.7906799e-05
3.6179931e-05
3.9695947e-05
3.6456946e-05
3.971324e-05
2.7105069e-05
2.8402811e-05
2.6581259e-05
2.7505011e-05
8.6188984e-06
9.0740305e-06
7.7409569e-06
8.2840289e-06
1.0314671e-06
1.0684324e-06
9.438511e-07
1.0922441e-06
5.2647875e-06
9.1418175e-06
4.7716979e-06
7.9095137e-06
4.2613379e-06
6.4812517e-06
3.87411e-06
5.6080079e-06
3.6022726e-06
5.0239168e-06
3.4081948e-06
4.6167869e-06
3.2623577e-06
4.310675e-06
1.5030696e-05
1.7543179e-05
1.4251023e-05
1.621314e-05
1.372526e-05
1.5036657e-05
1.3401529e-05
1.4396097e-05
1.3240876e-05
1.4043533e-05
1.317146e-05
1.3853167e-05
1.3140551e-05
1.373914e-05
2.6390417e-05
2.6969629e-05
2.5751329e-05
2.7347945e-05
2.5809581e-05
2.6630964e-05
2.5668974e-05
2.600694e-05
2.5452983e-05
2.5400016e-05
2.5164817e-05
2.4798013e-05
2.4946351e-05
2.4386579e-05
2.8758632e-05
2.6788404e-05
2.8448911e-05
2.7242825e-05
2.986678e-05
2.8614202e-05
3.0813417e-05
2.9252951e-05
3.1295058e-05
2.9513405e-05
3.1345368e-05
2.9698941e-05
3.0383423e-05
2.9845847e-05
1.9687756e-05
1.9189579e-05
1.9946599e-05
1.947421e-05
2.0934095e-05
1.7831679e-05
2.1499126e-05
1.7414704e-05
2.1780026e-05
1.6837995e-05
2.1926827e-05
1.660562e-05
2.2015399e-05
1.6598673e-05
8.0457989e-06
4.438615e-06
7.5394793e-06
3.7267977e-06
7.9633593e-06
3.3200654e-06
7.9377367e-06
3.2511794e-06
7.9941037e-06
3.180276e-06
8.5265695e-06
3.1647591e-06
8.1331147e-06
3.3000938e-06
1.3367634e-06
7.4839025e-07
1.2170774e-06
5.8157597e-07
1.2136179e-06
4.8786169e-07
1.1751232e-06
4.752312e-07
1.1658953e-06
4.6807428e-07
1.1750426e-06
4.689203e-07
1.102768e-06
4.9141921e-07
3.4577769e-07
2.0846601e-07
3.1322309e-07
1.5824595e-07
3.0492065e-07
1.3212563e-07
2.9051117e-07
1.3007663e-07
2.8431527e-07
1.2894675e-07
2.7936235e-07
1.2907218e-07
2.7513073e-07
1.3485381e-07
2.1115086e-07
1.4032759e-07
1.9795637e-07
1.0852757e-07
1.9207966e-07
9.1580647e-08
1.8263385e-07
9.2687706e-08
1.7876177e-07
9.1086479e-08
1.7573783e-07
9.1555345e-08
1.7273971e-07
9.3504327e-08
1.9999782e-07
1.3824945e-07
1.8886948e-07
1.0598838e-07
1.8159236e-07
9.2447071e-08
1.7152804e-07
9.4577166e-08
1.6693092e-07
8.9522479e-08
1.6370167e-07
9.0302924e-08
1.6028255e-07
8.9699384e-08
2.0783646e-07
1.4637659e-07
1.9586866e-07
1.0954518e-07
1.8607609e-07
9.7590422e-08
1.7443708e-07
1.0146305e-07
1.6886652e-07
9.3952841e-08
1.6479121e-07
9.5701419e-08
1.6057899e-07
9.3806319e-08
2.2236819e-07
1.5826106e-07
2.0807077e-07
1.1580687e-07
1.9474012e-07
1.0303879e-07
1.8097806e-07
1.0726495e-07
1.7477598e-07
1.0147708e-07
1.7059934e-07
1.0294734e-07
1.6648085e-07
1.0086035e-07
2.408313e-07
1.7368289e-07
2.2499832e-07
1.2447981e-07
2.0825767e-07
1.0855216e-07
1.9274382e-07
1.0895234e-07
1.8726423e-07
1.1370123e-07
1.8358395e-07
1.1287842e-07
1.7889467e-07
1.1154634e-07
2.6517695e-07
1.9243666e-07
2.4688598e-07
1.3630333e-07
2.2689929e-07
1.1726253e-07
2.1116732e-07
1.2304269e-07
2.0684469e-07
1.2790172e-07
2.0344713e-07
1.2780831e-07
1.9900783e-07
1.2685055e-07
2.9925088e-07
2.1759456e-07
2.7888979e-07
1.5392688e-07
2.5595046e-07
1.3267191e-07
2.3975931e-07
1.4242054e-07
2.3625244e-07
1.4766738e-07
2.335849e-07
1.4877105e-07
2.2952689e-07
1.4831596e-07
3.3866056e-07
2.4478099e-07
3.1652134e-07
1.7470025e-07
2.9184486e-07
1.5357895e-07
2.7550747e-07
1.6491118e-07
2.7277242e-07
1.7106061e-07
2.7119845e-07
1.7252647e-07
2.6722459e-07
1.7180668e-07
3.8079181e-07
2.7193368e-07
3.564849e-07
1.9620047e-07
3.3044508e-07
1.7625129e-07
3.1438581e-07
1.8924767e-07
3.1255702e-07
1.9592053e-07
3.1200037e-07
1.97756e-07
3.0812359e-07
1.9669191e-07
4.2273607e-07
2.9810945e-07
3.9579634e-07
2.180236e-07
3.6963259e-07
1.9938475e-07
3.5422375e-07
2.1353103e-07
3.531701e-07
2.2074421e-07
3.5325631e-07
2.2351682e-07
3.4987207e-07
2.2198598e-07
4.6871358e-07
3.2594662e-07
4.3739026e-07
2.4011606e-07
4.095601e-07
2.2067244e-07
3.9409473e-07
2.3470374e-07
3.9293059e-07
2.4246691e-07
3.9237766e-07
2.4646467e-07
3.9082231e-07
2.4594616e-07
5.1415513e-07
3.5209716e-07
4.7727729e-07
2.6116302e-07
4.4783895e-07
2.3963411e-07
4.3243618e-07
2.5247077e-07
4.3058542e-07
2.6118201e-07
4.2918031e-07
2.668893e-07
4.2638884e-07
2.6775596e-07
5.632191e-07
3.8023149e-07
5.1968517e-07
2.821501e-07
4.8493652e-07
2.5854045e-07
4.678397e-07
2.7246677e-07
4.6502458e-07
2.9590218e-07
4.6243048e-07
2.869922e-07
4.5970267e-07
2.9533226e-07
6.1304062e-07
4.0886731e-07
5.6104678e-07
3.045632e-07
5.1779267e-07
2.81148e-07
4.9839696e-07
2.9641307e-07
5.0061344e-07
3.2457574e-07
5.3317563e-07
3.1944752e-07
5.6265897e-07
3.2887485e-07
6.5402046e-07
4.3798153e-07
6.0119769e-07
3.2711413e-07
5.493553e-07
3.06231e-07
5.2744577e-07
3.2946203e-07
5.452158e-07
3.6061272e-07
6.7836902e-07
3.5168434e-07
6.9126178e-07
3.6659677e-07
6.8888059e-07
4.6705047e-07
6.4029003e-07
3.4792508e-07
5.8751755e-07
3.269831e-07
5.638937e-07
3.510699e-07
5.7572841e-07
3.7011348e-07
6.2496123e-07
4.0679208e-07
6.5265825e-07
4.0155564e-07
7.1290442e-07
4.9387459e-07
6.7336831e-07
3.6927092e-07
6.2782555e-07
3.5027301e-07
6.0612437e-07
3.7919896e-07
6.1647217e-07
3.9775074e-07
6.3640588e-07
4.184951e-07
6.6032528e-07
4.3842925e-07
7.4601258e-07
5.4366529e-07
7.2232911e-07
4.2129464e-07
6.9130956e-07
4.2539977e-07
6.7583868e-07
4.624088e-07
6.9207877e-07
4.9184113e-07
7.1708141e-07
5.202167e-07
7.4305338e-07
5.4478755e-07
8.979484e-07
7.2117431e-07
9.1980515e-07
6.6405144e-07
9.3538201e-07
7.9440796e-07
9.5241595e-07
9.3783975e-07
9.9072044e-07
9.9263952e-07
1.0290554e-06
1.0963277e-06
1.0592139e-06
1.1569758e-06
1.7440423e-06
1.6265216e-06
1.9621194e-06
1.8487509e-06
2.2027392e-06
2.6534103e-06
2.3966466e-06
3.3823672e-06
2.566088e-06
3.719791e-06
2.6870627e-06
3.9633213e-06
2.7390724e-06
4.2704984e-06
6.4061649e-06
6.1102421e-06
7.2055805e-06
7.6261236e-06
8.5110631e-06
1.2277834e-05
9.7190165e-06
1.7426108e-05
1.0737003e-05
1.8510121e-05
1.1472752e-05
1.9079855e-05
1.1724509e-05
1.9434429e-05
1.2385557e-05
1.406615e-05
1.3100622e-05
1.7189582e-05
1.44618e-05
2.0837739e-05
1.5558822e-05
2.3332179e-05
1.6257076e-05
2.4854603e-05
1.6675701e-05
2.5787794e-05
1.6942086e-05
2.6373318e-05
1.9741579e-05
2.259992e-05
1.9958688e-05
2.5481778e-05
2.175656e-05
3.0558684e-05
2.3546367e-05
3.4427464e-05
2.4846878e-05
3.6861629e-05
2.5642825e-05
3.8313508e-05
2.6121715e-05
3.9210497e-05
3.2310856e-05
3.6810682e-05
3.2223361e-05
3.8146194e-05
3.4277234e-05
4.3038695e-05
3.7067773e-05
4.7430485e-05
3.9103686e-05
5.0077652e-05
4.0349357e-05
5.1516005e-05
4.1074877e-05
5.2290128e-05
3.6639696e-05
4.0275704e-05
3.7576778e-05
4.2674132e-05
3.9915789e-05
4.4946492e-05
4.1729529e-05
4.7114509e-05
4.2352673e-05
4.7626998e-05
4.2298246e-05
4.6959719e-05
4.1977205e-05
4.6192406e-05
2.625669e-05
2.7288327e-05
2.6549052e-05
2.7803701e-05
2.7118939e-05
2.8228189e-05
2.7482374e-05
2.8080791e-05
2.7552155e-05
2.7728901e-05
2.7519253e-05
2.745624e-05
2.7504219e-05
2.7294665e-05
7.649719e-06
8.6347108e-06
8.0813414e-06
8.9960974e-06
8.3187338e-06
8.6341094e-06
8.0984543e-06
7.9753965e-06
7.7539982e-06
7.3960838e-06
7.4977562e-06
7.0213114e-06
7.3450585e-06
6.7974965e-06
9.5041138e-07
1.376543e-06
1.0037924e-06
1.4483245e-06
1.0122519e-06
1.3434421e-06
9.671647e-07
1.2071014e-06
9.0423818e-07
1.0921309e-06
8.5049427e-07
1.0134673e-06
8.1134841e-07
9.5997701e-07
3.1446604e-06
4.0610197e-06
3.0349894e-06
3.819725e-06
2.9508052e-06
3.6403287e-06
2.8682877e-06
3.4638976e-06
2.7611633e-06
3.2304054e-06
2.5820938e-06
2.8318455e-06
1.3121867e-05
1.3649605e-05
1.3100844e-05
1.3574328e-05
1.3095392e-05
1.3519851e-05
1.3065488e-05
1.343472e-05
1.3013677e-05
1.3314086e-05
1.2926905e-05
1.3152136e-05
2.4777395e-05
2.403174e-05
2.4711539e-05
2.3825833e-05
2.464315e-05
2.3625585e-05
2.4514021e-05
2.3403394e-05
2.4411592e-05
2.3183038e-05
2.4347712e-05
2.3045217e-05
2.9632203e-05
2.9960049e-05
2.9171351e-05
3.0068155e-05
2.8741672e-05
3.0137153e-05
2.8417972e-05
3.0194591e-05
2.8152171e-05
2.8846611e-05
2.819243e-05
2.7881887e-05
2.2086886e-05
1.7811119e-05
2.2143959e-05
2.0607832e-05
2.2172483e-05
2.1083672e-05
2.2186865e-05
2.1414985e-05
2.2188871e-05
2.1420471e-05
2.2175011e-05
2.1436293e-05
8.2207419e-06
4.0253964e-06
9.6378993e-06
4.266723e-06
9.0120852e-06
4.1285196e-06
8.2687618e-06
4.150141e-06
7.9462609e-06
4.2199371e-06
8.8142489e-06
4.3338299e-06
1.1143875e-06
6.1751877e-07
1.0810507e-06
6.0008701e-07
1.0614787e-06
5.9146005e-07
1.0884576e-06
5.9776826e-07
1.153856e-06
6.0737321e-07
1.2545884e-06
6.2260556e-07
2.7233152e-07
1.6852002e-07
2.6529719e-07
1.5632235e-07
2.596004e-07
1.5678701e-07
2.6547173e-07
1.5945499e-07
2.8125173e-07
1.6276525e-07
3.0707826e-07
1.6701024e-07
1.7050221e-07
1.081469e-07
1.65814e-07
1.0550243e-07
1.6245103e-07
1.0674192e-07
1.6663023e-07
1.0962436e-07
1.7711551e-07
1.1262801e-07
1.9391446e-07
1.1551334e-07
1.5734557e-07
9.4651344e-08
1.5285225e-07
9.9246487e-08
1.5019885e-07
1.0033305e-07
1.5466022e-07
1.0427967e-07
1.6476464e-07
1.0790235e-07
1.8015708e-07
1.1061493e-07
1.5716471e-07
9.3847218e-08
1.5281604e-07
9.8210021e-08
1.5100318e-07
1.0071764e-07
1.5669999e-07
1.0564396e-07
1.6735469e-07
1.1035465e-07
1.8229053e-07
1.1329622e-07
1.6382134e-07
1.0001985e-07
1.6031846e-07
9.9084646e-08
1.5860514e-07
1.0302067e-07
1.6390573e-07
1.0848862e-07
1.7402916e-07
1.1412249e-07
1.8835358e-07
1.1747343e-07
1.7595633e-07
1.0986912e-07
1.7220754e-07
1.0727554e-07
1.7016643e-07
1.0649442e-07
1.7562782e-07
1.1281313e-07
1.8608247e-07
1.1946353e-07
2.0037181e-07
1.2339048e-07
1.9551839e-07
1.2455552e-07
1.9116164e-07
1.2092212e-07
1.8926041e-07
1.1862416e-07
1.9500199e-07
1.2018369e-07
2.0561886e-07
1.2775039e-07
2.1937915e-07
1.3196677e-07
2.2577499e-07
1.4607409e-07
2.2184686e-07
1.4204225e-07
2.2065943e-07
1.3874844e-07
2.2666113e-07
1.3795697e-07
2.3695715e-07
1.3880791e-07
2.4960625e-07
1.4224644e-07
2.6340641e-07
1.6965218e-07
2.6020849e-07
1.6579531e-07
2.5905365e-07
1.6205484e-07
2.6456185e-07
1.607897e-07
2.7413399e-07
1.605669e-07
2.8554532e-07
1.6034097e-07
3.0450296e-07
1.9395233e-07
3.0222185e-07
1.8933666e-07
3.007347e-07
1.8483652e-07
3.0523039e-07
1.8395961e-07
3.1367069e-07
1.8451315e-07
3.2384727e-07
1.8497683e-07
3.4703784e-07
2.1847555e-07
3.4559908e-07
2.1299047e-07
3.4363964e-07
2.0733526e-07
3.470567e-07
2.066199e-07
3.5425069e-07
2.0817895e-07
3.6312962e-07
2.0943304e-07
3.8949416e-07
2.4270867e-07
3.8740612e-07
2.3636812e-07
3.8475242e-07
2.292572e-07
3.8729958e-07
2.2767897e-07
3.9349806e-07
2.2972267e-07
4.0190798e-07
2.3152369e-07
4.2473838e-07
2.6581958e-07
4.227827e-07
2.6058635e-07
4.2007671e-07
2.5265502e-07
4.2407567e-07
2.4940197e-07
4.3269392e-07
2.5043253e-07
4.4782072e-07
2.5158911e-07
4.6016212e-07
2.953224e-07
4.5990908e-07
2.9187792e-07
4.5866823e-07
2.8231851e-07
4.7022885e-07
2.7488108e-07
5.0745865e-07
2.7098172e-07
5.9010928e-07
2.664213e-07
5.8993471e-07
3.295826e-07
6.0859397e-07
3.2475896e-07
6.3698955e-07
3.1083793e-07
6.6684005e-07
2.9653419e-07
6.6377438e-07
2.8915659e-07
6.4798567e-07
2.8681213e-07
7.0190954e-07
3.6946414e-07
7.0225619e-07
3.6368717e-07
7.1170285e-07
3.4810545e-07
7.3320336e-07
3.3005773e-07
7.6021989e-07
3.1924113e-07
7.4734861e-07
3.1536924e-07
6.7565621e-07
4.0728024e-07
6.7968731e-07
3.9946997e-07
6.8653291e-07
3.8201316e-07
7.0272667e-07
3.6124763e-07
7.4131633e-07
3.493231e-07
7.6505874e-07
3.4592112e-07
6.7290144e-07
4.419694e-07
6.7645032e-07
4.3214269e-07
6.7153723e-07
4.1312785e-07
6.6727965e-07
3.9249625e-07
6.9437586e-07
3.837171e-07
7.409087e-07
3.855689e-07
7.5582134e-07
5.4692143e-07
7.5769371e-07
5.3333469e-07
7.5040388e-07
5.1217913e-07
7.5037128e-07
4.9366552e-07
8.0422587e-07
4.9303123e-07
7.0443227e-07
5.1558649e-07
1.0791005e-06
1.17491e-06
1.0955187e-06
1.1602821e-06
1.09417e-06
1.1339198e-06
1.0766506e-06
1.119328e-06
1.0636101e-06
1.1533058e-06
1.0808538e-06
1.2531922e-06
2.7632612e-06
4.3842125e-06
2.8138268e-06
4.4015117e-06
2.8611131e-06
4.3711097e-06
2.9169568e-06
4.3719243e-06
2.9748903e-06
4.5529062e-06
3.0804542e-06
5.0107231e-06
1.1708869e-05
1.9677698e-05
1.1880452e-05
1.9932507e-05
1.2278285e-05
2.0156465e-05
1.2837705e-05
2.0391984e-05
1.3324982e-05
2.0692458e-05
1.3618292e-05
2.1194341e-05
1.7116536e-05
2.676514e-05
1.7308316e-05
2.7169754e-05
1.7483181e-05
2.7527841e-05
1.7674329e-05
2.790627e-05
1.7933134e-05
2.8391587e-05
1.8385899e-05
2.9194986e-05
2.6428033e-05
3.9779264e-05
2.6742242e-05
4.03206e-05
2.7026565e-05
4.0783673e-05
2.7332353e-05
4.1265419e-05
2.7734145e-05
4.1883849e-05
2.840329e-05
4.2925045e-05
4.1510646e-05
5.2721737e-05
4.1886793e-05
5.2712735e-05
4.2210854e-05
5.2153557e-05
4.2544902e-05
5.2116529e-05
4.279502e-05
5.2123565e-05
4.3112131e-05
5.2161591e-05
4.16374e-05
4.5683849e-05
4.14894e-05
4.5521045e-05
4.1401857e-05
4.5451479e-05
4.1425761e-05
4.560871e-05
4.1514685e-05
4.5660726e-05
4.1781099e-05
4.5570906e-05
2.7558031e-05
2.7293828e-05
2.7620292e-05
2.7320708e-05
2.7697477e-05
2.737456e-05
2.7781588e-05
2.7445331e-05
2.7850321e-05
2.7426301e-05
2.7937383e-05
2.7291572e-05
7.2561865e-06
6.6598558e-06
7.1819642e-06
6.5329765e-06
7.132195e-06
6.4320138e-06
7.0886641e-06
6.3304746e-06
7.0374291e-06
6.2073494e-06
6.9527031e-06
6.0237338e-06
7.8371998e-07
9.2417663e-07
7.594411e-07
8.9070487e-07
7.4000556e-07
8.6405252e-07
7.217558e-07
8.3790519e-07
6.9975516e-07
8.0466642e-07
6.6725942e-07
7.5281127e-07
2.3115176e-06
2.2713005e-06
2.1241e-06
1.9411041e-06
2.0548045e-06
1.8626864e-06
2.0224579e-06
1.83161e-06
2.0010089e-06
1.8117704e-06
1.9819795e-06
1.7966033e-06
1.2748306e-05
1.29073e-05
1.2581258e-05
1.2720042e-05
1.255482e-05
1.269242e-05
1.2556034e-05
1.2731038e-05
1.255819e-05
1.2750387e-05
1.2559591e-05
1.2768729e-05
2.4255695e-05
2.3035996e-05
2.4171481e-05
2.3066334e-05
2.4121322e-05
2.3097508e-05
2.4163863e-05
2.3175545e-05
2.4184695e-05
2.3324388e-05
2.4156196e-05
2.3331915e-05
2.8330861e-05
2.8255792e-05
2.8402994e-05
2.8379777e-05
2.8206554e-05
2.8247577e-05
2.8211291e-05
2.8157862e-05
2.8256717e-05
2.8004314e-05
2.8219175e-05
2.8322535e-05
2.2145071e-05
2.1435207e-05
2.2151402e-05
2.144322e-05
2.2179519e-05
2.1455147e-05
2.2201879e-05
2.1460162e-05
2.2218776e-05
2.1463137e-05
2.2232282e-05
2.146236e-05
9.6264748e-06
4.4517408e-06
1.0229575e-05
4.7294462e-06
1.1218823e-05
4.9210395e-06
1.1360824e-05
5.0252418e-06
1.130782e-05
5.0779779e-06
1.1155616e-05
5.1072053e-06
1.3625658e-06
6.305339e-07
1.4824527e-06
6.5766268e-07
1.5608421e-06
6.7774171e-07
1.5682224e-06
6.892739e-07
1.5834621e-06
6.9511339e-07
1.6042081e-06
7.0661568e-07
3.3734151e-07
1.6841483e-07
3.7423788e-07
1.7449134e-07
3.893724e-07
1.7899691e-07
3.9074981e-07
1.817584e-07
3.921117e-07
1.8339774e-07
3.9874961e-07
1.8708746e-07
2.1500279e-07
1.1558474e-07
2.4286595e-07
1.1883518e-07
2.4959975e-07
1.2157501e-07
2.5062854e-07
1.2344011e-07
2.5205194e-07
1.24793e-07
2.5731839e-07
1.2771118e-07
2.0009941e-07
1.0959734e-07
2.2872522e-07
1.1172336e-07
2.3189035e-07
1.1392921e-07
2.3251057e-07
1.155208e-07
2.3402214e-07
1.1668611e-07
2.3931976e-07
1.1938332e-07
2.0193987e-07
1.113728e-07
2.3351103e-07
1.1279892e-07
2.3350824e-07
1.1461559e-07
2.3347624e-07
1.1604971e-07
2.3503855e-07
1.1703846e-07
2.405394e-07
1.1963251e-07
2.0762771e-07
1.1507462e-07
2.419255e-07
1.1588537e-07
2.4023289e-07
1.1718825e-07
2.3987867e-07
1.1841122e-07
2.4167604e-07
1.1918096e-07
2.4724e-07
1.2153754e-07
2.1958517e-07
1.2107641e-07
2.5760449e-07
1.2147209e-07
2.546566e-07
1.2241927e-07
2.5475501e-07
1.2343292e-07
2.5706178e-07
1.2412354e-07
2.625182e-07
1.2631765e-07
2.3664816e-07
1.2971221e-07
2.5486756e-07
1.3060944e-07
2.6864565e-07
1.3214732e-07
2.7657322e-07
1.3260393e-07
2.791379e-07
1.3326807e-07
2.8444927e-07
1.3675731e-07
2.6561662e-07
1.4158002e-07
2.7698473e-07
1.439931e-07
2.8041824e-07
1.4841491e-07
2.817818e-07
1.5114877e-07
2.862197e-07
1.528915e-07
2.9800813e-07
1.5701032e-07
3.0111232e-07
1.6238408e-07
3.1331456e-07
1.6842098e-07
3.1766964e-07
1.7301407e-07
3.1852931e-07
1.7552488e-07
3.2059905e-07
1.775273e-07
3.2851025e-07
1.8185941e-07
3.3911881e-07
1.8792299e-07
3.5188131e-07
1.9477946e-07
3.5649368e-07
1.9977948e-07
3.5683501e-07
2.0217778e-07
3.5849574e-07
2.0354809e-07
3.7347952e-07
2.0815984e-07
3.7892816e-07
2.1325079e-07
3.9326633e-07
2.2056953e-07
4.0366735e-07
2.2507422e-07
4.1245975e-07
2.2627523e-07
4.2263058e-07
2.2621133e-07
4.4196071e-07
2.3110808e-07
4.2713743e-07
2.3625519e-07
4.7003913e-07
2.4172614e-07
4.6525785e-07
2.4438524e-07
4.5989411e-07
2.4584078e-07
4.5904331e-07
2.4589013e-07
4.6690552e-07
2.5046111e-07
5.1834446e-07
2.5351999e-07
5.0015991e-07
2.5867191e-07
4.921463e-07
2.6306529e-07
4.8356302e-07
2.6280087e-07
4.8044918e-07
2.6206321e-07
4.918533e-07
2.6777919e-07
5.5683504e-07
2.7042387e-07
5.3808834e-07
2.7776473e-07
5.2822524e-07
2.8080223e-07
5.1597913e-07
2.793246e-07
5.1177998e-07
2.7808282e-07
5.2603396e-07
2.8498596e-07
6.1486639e-07
2.9306532e-07
5.8682975e-07
3.0004864e-07
5.7267388e-07
3.0383949e-07
5.5988459e-07
3.0178789e-07
5.5760139e-07
3.0023982e-07
5.7759449e-07
3.0842689e-07
6.9366219e-07
3.2163204e-07
6.5347267e-07
3.3016835e-07
6.4097814e-07
3.3547453e-07
6.301884e-07
3.3371102e-07
6.3195822e-07
3.3284952e-07
6.51825e-07
3.4208225e-07
6.9135501e-07
3.5420646e-07
7.1809463e-07
3.6257574e-07
7.1426196e-07
3.6743644e-07
7.0427517e-07
3.6815724e-07
7.078555e-07
3.6940912e-07
7.2552167e-07
3.821511e-07
6.634421e-07
4.0058275e-07
8.0816125e-07
4.0576772e-07
7.954501e-07
4.0583369e-07
7.7724622e-07
4.0943492e-07
7.79162e-07
4.1380735e-07
7.9674668e-07
4.3189869e-07
7.3318154e-07
5.5204685e-07
8.8531884e-07
5.6652837e-07
9.4613192e-07
5.6551646e-07
9.3296665e-07
5.6945425e-07
9.3021699e-07
5.8146612e-07
9.4233138e-07
6.1292042e-07
1.1419195e-06
1.4041962e-06
1.3410545e-06
1.5226943e-06
1.6034731e-06
1.5308621e-06
1.5853946e-06
1.5393609e-06
1.5905052e-06
1.5917639e-06
1.621578e-06
1.6951553e-06
3.3290052e-06
5.7598506e-06
3.8140964e-06
6.4905143e-06
5.069908e-06
6.5566231e-06
4.9912847e-06
6.5929434e-06
5.0075944e-06
6.8873416e-06
5.1276548e-06
7.3818872e-06
1.4022126e-05
2.203649e-05
1.4507192e-05
2.3055658e-05
1.4718879e-05
2.3412934e-05
1.4846011e-05
2.3610107e-05
1.4938652e-05
2.3757084e-05
1.5022321e-05
2.3889705e-05
1.9077672e-05
3.0533004e-05
1.9860353e-05
3.2204948e-05
2.0233881e-05
3.2818028e-05
2.0450263e-05
3.3154555e-05
2.0606754e-05
3.3402169e-05
2.0746533e-05
3.3623062e-05
2.9426809e-05
4.4609816e-05
3.0705663e-05
4.6714127e-05
3.1312426e-05
4.7508223e-05
3.1655631e-05
4.7942516e-05
3.1903411e-05
4.8258936e-05
3.2122086e-05
4.8543217e-05
4.3880301e-05
5.2747511e-05
4.5146238e-05
5.4206677e-05
4.5651526e-05
5.439652e-05
4.5821299e-05
5.4247533e-05
4.5766946e-05
5.4128031e-05
4.5872933e-05
5.4135293e-05
4.2281859e-05
4.5769301e-05
4.3064174e-05
4.6486495e-05
4.3425278e-05
4.6619728e-05
4.3593626e-05
4.6566707e-05
4.3691829e-05
4.6506144e-05
4.3769837e-05
4.6494154e-05
2.810245e-05
2.7234896e-05
2.8412587e-05
2.7416067e-05
2.8571551e-05
2.7474169e-05
2.8654827e-05
2.7473412e-05
2.8714205e-05
2.7469558e-05
2.8765772e-05
2.7477888e-05
6.8272685e-06
5.7838151e-06
6.7677691e-06
5.6705318e-06
6.7514125e-06
5.6433562e-06
6.7254515e-06
5.603358e-06
6.6992799e-06
5.5599645e-06
6.6742318e-06
5.5137805e-06
6.258442e-07
6.8070344e-07
5.9870764e-07
6.2692069e-07
5.8681733e-07
6.0016188e-07
5.7740517e-07
5.8093666e-07
5.6866719e-07
5.654975e-07
5.5931513e-07
5.5039558e-07
1.9590406e-06
1.7846754e-06
1.9413959e-06
1.7877666e-06
1.9246221e-06
1.805258e-06
1.9096907e-06
1.8500278e-06
1.8974243e-06
1.9521236e-06
1.8991152e-06
2.1806967e-06
1.998874e-06
2.7704696e-06
1.2544275e-05
1.2755297e-05
1.2543454e-05
1.2760993e-05
1.2534313e-05
1.2764396e-05
1.251438e-05
1.2785981e-05
1.249979e-05
1.2852719e-05
1.2477014e-05
1.2956329e-05
1.2455395e-05
1.3195984e-05
2.4145908e-05
2.3332165e-05
2.4174717e-05
2.338538e-05
2.4215136e-05
2.3423906e-05
2.4324777e-05
2.3516478e-05
2.4389155e-05
2.3685306e-05
2.4462605e-05
2.3966571e-05
2.4602696e-05
2.4430235e-05
2.7972571e-05
2.8281413e-05
2.7961927e-05
2.8374884e-05
2.7949622e-05
2.8297128e-05
2.8002164e-05
2.8005432e-05
2.8249078e-05
2.7928289e-05
2.8422774e-05
2.8122933e-05
2.8605387e-05
2.8750385e-05
2.2248352e-05
2.145736e-05
2.2278718e-05
2.1483869e-05
2.2298254e-05
2.1525697e-05
2.2323439e-05
2.1586289e-05
2.2358266e-05
2.1685235e-05
2.2423949e-05
2.179079e-05
2.254942e-05
2.1830389e-05
1.1697261e-05
5.213784e-06
1.2637431e-05
6.175124e-06
1.1349572e-05
6.5711194e-06
1.1783358e-05
6.2824502e-06
1.1987441e-05
6.4645481e-06
1.2429245e-05
7.5379246e-06
1.2706963e-05
8.8718712e-06
1.6058465e-06
7.2340649e-07
1.6846219e-06
7.4359152e-07
2.0206002e-06
7.7426675e-07
1.6805422e-06
8.1146556e-07
1.8043234e-06
8.7421962e-07
1.944419e-06
9.9904615e-07
2.1752206e-06
1.1531569e-06
4.040678e-07
1.9263629e-07
4.0765929e-07
1.9916025e-07
4.1719397e-07
2.0694663e-07
4.2835425e-07
2.1593312e-07
4.4738561e-07
2.3243652e-07
4.8896564e-07
2.7342828e-07
5.4974017e-07
3.2197617e-07
2.6181911e-07
1.3179721e-07
2.6495343e-07
1.3639212e-07
2.7258823e-07
1.4200351e-07
2.8822458e-07
1.4860787e-07
2.8889825e-07
1.6382249e-07
3.2583183e-07
1.9577764e-07
3.6853196e-07
2.3568215e-07
2.4378188e-07
1.230305e-07
2.4704671e-07
1.2714e-07
2.5264449e-07
1.3231473e-07
2.5889602e-07
1.4021035e-07
2.7214416e-07
1.5685424e-07
3.0757066e-07
1.9008583e-07
3.5829991e-07
2.3591377e-07
2.4484838e-07
1.2301837e-07
2.4802466e-07
1.2687946e-07
2.5531301e-07
1.3183554e-07
2.6381175e-07
1.4183082e-07
2.786628e-07
1.5946456e-07
3.164526e-07
1.9517535e-07
3.7590558e-07
2.4961078e-07
2.5120067e-07
1.2460631e-07
2.5421268e-07
1.2805682e-07
2.6164479e-07
1.3539071e-07
2.7173953e-07
1.4597834e-07
2.8894607e-07
1.6440638e-07
3.3060247e-07
2.0295913e-07
4.011785e-07
2.6707294e-07
2.6587878e-07
1.2988554e-07
2.6867392e-07
1.3611505e-07
2.7395415e-07
1.443259e-07
2.8481972e-07
1.5521379e-07
3.0551333e-07
1.7445357e-07
3.5288282e-07
2.1642216e-07
4.3648011e-07
2.9039008e-07
2.8706871e-07
1.4228642e-07
2.8943508e-07
1.4851427e-07
2.941893e-07
1.5704172e-07
3.0482304e-07
1.6902235e-07
3.2986676e-07
1.9094869e-07
3.8495036e-07
2.3763686e-07
4.8723809e-07
3.2385416e-07
3.0890148e-07
1.6195212e-07
3.1842685e-07
1.6796383e-07
3.2682364e-07
1.7643021e-07
3.3782454e-07
1.8988585e-07
3.6962386e-07
2.1545115e-07
4.3689346e-07
2.6974486e-07
5.626441e-07
3.7130591e-07
3.3630604e-07
1.8734852e-07
3.4527034e-07
1.9362525e-07
3.6317364e-07
2.0216947e-07
3.7889004e-07
2.1704753e-07
4.1856625e-07
2.4617019e-07
5.0017155e-07
3.0895555e-07
6.508886e-07
4.2586228e-07
3.9173352e-07
2.1409715e-07
4.067818e-07
2.1955302e-07
4.1442851e-07
2.2885122e-07
4.2304519e-07
2.4590599e-07
4.6994424e-07
2.7902384e-07
5.6623753e-07
3.4884066e-07
7.4315817e-07
4.797107e-07
4.484884e-07
2.3826338e-07
4.4917213e-07
2.4432474e-07
4.5275289e-07
2.5455193e-07
4.6543111e-07
2.7271472e-07
5.1766948e-07
3.0856995e-07
6.2481747e-07
3.833389e-07
8.2027652e-07
5.2315054e-07
4.7494323e-07
2.587837e-07
4.8013628e-07
2.671112e-07
4.8300478e-07
2.7763681e-07
5.0266582e-07
2.955448e-07
5.559102e-07
3.3119401e-07
6.6588666e-07
4.066034e-07
8.7347186e-07
5.5095822e-07
5.0158972e-07
2.7734257e-07
5.0475555e-07
2.858107e-07
5.0800297e-07
2.964761e-07
5.3408798e-07
3.1356653e-07
5.8555816e-07
3.4685889e-07
6.9229722e-07
4.186144e-07
8.9995916e-07
5.5977571e-07
5.3640654e-07
2.9526125e-07
5.3872963e-07
3.0383046e-07
5.4103211e-07
3.1439115e-07
5.6442375e-07
3.3058157e-07
6.1256288e-07
3.6115373e-07
7.1398292e-07
4.2801496e-07
9.1944524e-07
5.6508538e-07
5.9146561e-07
3.1973753e-07
5.9577398e-07
3.2778392e-07
5.9701597e-07
3.3716303e-07
6.0294059e-07
3.5337706e-07
6.4903495e-07
3.8384503e-07
7.4957239e-07
4.4893111e-07
9.5516342e-07
5.8480655e-07
6.675641e-07
3.5570936e-07
6.8015916e-07
3.6429031e-07
6.8379001e-07
3.7144197e-07
6.909053e-07
3.8682853e-07
7.0882229e-07
4.1948671e-07
8.0800533e-07
4.9015209e-07
1.0292825e-06
6.3681332e-07
7.4010085e-07
4.002936e-07
7.5658337e-07
4.0979779e-07
7.6165123e-07
4.1625389e-07
7.7341554e-07
4.3358642e-07
7.9692118e-07
4.6986285e-07
8.6650175e-07
5.5182148e-07
1.0941568e-06
7.2130114e-07
8.1303465e-07
4.553452e-07
8.3677022e-07
4.6689813e-07
8.4509987e-07
4.7558757e-07
8.6126851e-07
5.0066092e-07
8.9288284e-07
5.5266501e-07
9.6537192e-07
6.6850753e-07
1.193403e-06
8.9247511e-07
9.5652565e-07
6.5027035e-07
9.8790029e-07
6.7042145e-07
1.0002621e-06
6.8848272e-07
1.0200387e-06
7.3388644e-07
1.0624843e-06
8.2558905e-07
1.1658885e-06
1.0223269e-06
1.3671198e-06
1.3726008e-06
1.643421e-06
1.811236e-06
1.6969258e-06
1.8777532e-06
1.7259431e-06
1.9423936e-06
1.772163e-06
2.0782998e-06
1.8722421e-06
2.3448197e-06
2.0875772e-06
2.9737625e-06
2.3922608e-06
6.6261533e-06
5.2337771e-06
7.9323736e-06
5.4325101e-06
8.2659225e-06
5.5514628e-06
8.5801687e-06
5.7431084e-06
9.2332674e-06
6.1535988e-06
1.0627743e-05
7.011479e-06
1.3885685e-05
8.2391871e-06
1.9491496e-05
1.5110743e-05
2.4018968e-05
1.5193423e-05
2.414146e-05
1.531524e-05
2.429569e-05
1.5502837e-05
2.4484967e-05
1.5785639e-05
2.468301e-05
1.6148701e-05
2.4765185e-05
1.6373625e-05
2.4353502e-05
2.0891949e-05
3.3838872e-05
2.1035768e-05
3.4043387e-05
2.1255048e-05
3.4310298e-05
2.1602477e-05
3.4663501e-05
2.2141652e-05
3.5096083e-05
2.2866253e-05
3.5457315e-05
2.3385159e-05
3.5113727e-05
3.2336861e-05
4.8828094e-05
3.2559644e-05
4.9100273e-05
3.2907798e-05
4.948605e-05
3.3475802e-05
5.0073372e-05
3.4400729e-05
5.0969955e-05
3.5771845e-05
5.2184931e-05
3.6988929e-05
5.3150332e-05
4.5844563e-05
5.4172439e-05
4.5812036e-05
5.4110962e-05
4.589474e-05
5.4119009e-05
4.6167353e-05
5.4236801e-05
4.6915729e-05
5.4701986e-05
4.8983696e-05
5.6173925e-05
5.3588733e-05
5.9938895e-05
4.3797806e-05
4.6509633e-05
4.3830332e-05
4.6483808e-05
4.3936132e-05
4.6583218e-05
4.4194354e-05
4.6930927e-05
4.482713e-05
4.7817268e-05
4.6405941e-05
4.9876491e-05
5.0231884e-05
5.3510833e-05
2.8771357e-05
2.7488513e-05
2.8789781e-05
2.750957e-05
2.883435e-05
2.7599405e-05
2.8960518e-05
2.7868734e-05
2.9317008e-05
2.8539724e-05
3.0327253e-05
3.0143517e-05
3.2957102e-05
3.3185937e-05
6.6431174e-06
5.4624817e-06
6.6153755e-06
5.4231999e-06
6.5724239e-06
5.3881603e-06
6.5011859e-06
5.3856273e-06
6.4138475e-06
5.4579047e-06
6.3998797e-06
5.6563503e-06
6.7134817e-06
6.1016249e-06
5.4670776e-07
5.3105835e-07
5.3383775e-07
5.1208974e-07
5.1402356e-07
4.8312057e-07
4.8366954e-07
4.3836159e-07
4.3913665e-07
3.6731807e-07
3.8617401e-07
2.7272536e-07
3.5466141e-07
1.9677366e-07
2.1280183e-06
3.1745775e-06
2.1708524e-06
3.3397945e-06
2.0733207e-06
3.1186756e-06
2.0617577e-06
2.9826667e-06
1.235217e-05
1.3289176e-05
1.2241637e-05
1.3342435e-05
1.2087764e-05
1.3362649e-05
1.2888374e-05
1.511745e-05
2.4764151e-05
2.47551e-05
2.508041e-05
2.5067361e-05
2.5875431e-05
2.5827113e-05
2.8861064e-05
2.9178459e-05
2.9025572e-05
2.9260669e-05
2.9603147e-05
2.9470937e-05
3.0989085e-05
3.0296297e-05
3.5033598e-05
3.4339274e-05
2.2583827e-05
2.1926836e-05
2.278961e-05
2.2263823e-05
2.3081756e-05
2.3009462e-05
2.3919022e-05
2.460095e-05
1.2589466e-05
9.9789839e-06
1.2592285e-05
1.1235741e-05
1.2565218e-05
1.3033675e-05
1.2823763e-05
1.3667153e-05
2.3995538e-06
1.2862683e-06
2.7885063e-06
1.489905e-06
3.4047213e-06
1.9376766e-06
3.9637888e-06
2.4996711e-06
6.0258486e-07
3.5816115e-07
6.7899012e-07
3.9856614e-07
7.8746289e-07
4.7448189e-07
8.6235115e-07
5.4515529e-07
4.0758004e-07
2.654265e-07
4.5400343e-07
2.9265036e-07
5.1546506e-07
3.3638446e-07
5.7218078e-07
3.8105952e-07
4.025011e-07
2.7173606e-07
4.4875371e-07
3.0108562e-07
5.0367519e-07
3.4087639e-07
5.5785299e-07