/*--------------------------------*- C++ -*----------------------------------*\
| =========                 |                                                 |
| \\      /  F ield         | OpenFOAM: The Open Source CFD Toolbox           |
|  \\    /   O peration     | Version:  2206                                  |
|   \\  /    A nd           | Website:  www.openfoam.com                      |
|    \\/     M anipulation  |                                                 |
\*---------------------------------------------------------------------------*/
FoamFile
{
    version     2.0;
    format      ascii;
    arch        "LSB;label=32;scalar=64";
    class       volScalarField;
    location    "200";
    object      omega;
}
// * * * * * * * * * * * * * * * * * * * * * * * * * * * * * * * * * * * * * //

dimensions      [0 0 -1 0 0 0 0];

internalField   nonuniform List<scalar> 
50904
(
5161642.4
5208909.9
5143716.4
5188069
1334826.8
1322922
1326207.5
1283409.9
522825.84
498470.39
511943.58
475112.3
270163.16
243201.78
253511.79
221958.28
139001.51
119022.61
122719.3
103075.26
50147.333
43082.056
42304.354
36279.422
13055.448
12128.517
11196.174
10707.196
3531.7376
3457.5446
3000.7011
2886.525
706.31957
684.89967
563.74458
544.41514
129.59056
142.44921
105.90949
119.7212
43.047013
56.620889
41.398642
56.153647
34.460041
46.902339
35.008002
48.572595
32.672406
43.708503
33.201092
45.34337
30.843872
40.53469
31.28215
42.097659
28.836175
37.232033
29.179803
38.716593
26.722919
33.926813
26.96464
35.338577
24.742368
30.980018
24.968115
32.386799
23.035413
28.46001
23.224892
29.870854
21.359112
26.06769
21.604702
27.649231
19.980988
24.093464
20.257556
25.849587
18.890383
22.529631
19.122941
24.319184
18.08211
21.351137
18.294829
23.161093
17.57854
20.644993
17.853379
22.659942
17.559274
20.860426
18.306749
24.371892
19.802097
25.333977
24.34574
37.910591
39.849735
58.601275
68.40704
117.82055
190.76622
272.13372
335.77911
519.10462
1133.1797
1488.6383
1707.2443
2331.0349
5617.7395
6874.0941
7460.6804
9176.6804
24057.311
28924.675
28595.614
33660.096
77668.544
89506.635
85603.068
95677.002
181311.4
188468.27
188939.64
191187.24
324018.05
317545.86
327436.47
314885.57
580999.45
569175.12
577978.92
561259.63
1264154.5
1258508.9
1248141.4
1249285.3
5128018.4
5130744.6
5169421
5161239.3
5094242.2
5110260.6
5019316.5
4988181.8
4979377
4905700.7
4954186.7
4858636.7
4938533.4
4829513.2
4928705.3
4810978.7
4922362.6
4798521.4
1310804.5
1255570.6
1299595.5
1259292.1
1294789.1
1266794.8
1287377.3
1267805.3
1281080.3
1268184.5
1276354.7
1267923.8
1272925.6
1267467.2
499824.66
459729.3
491466.65
456381.82
495949.02
462015.48
502109.81
467800.52
506808.08
472663.02
509845.31
475907.47
511799.35
478036.6
239247.48
209543.05
230742.96
206109.53
234395.05
209962.01
238902.31
212613.73
242178.2
214046.9
244291.01
215134.98
245619.16
216020.68
112385.74
95684.226
108132.5
94720.694
111147.52
97335.666
113455.98
98377.734
114736.68
98685.867
115417.66
98683.28
115813.51
98566.992
38883.825
34144.868
37670.218
34493.912
38303.043
35159.536
38565.729
34934.497
38615.585
34593.842
38601.862
34244.579
38596.858
33931.238
10549.805
10474.205
10005.409
10872.233
9909.7032
10864.492
9846.0059
10524.794
9783.9581
10246.076
9739.1572
10026.852
9710.7716
9853.5791
2741.7037
2664.3904
2437.1143
2516.994
2355.4285
2462.1955
2312.3481
2362.876
2281.7255
2292.1386
2259.6198
2240.2246
2242.1766
2200.4444
501.69109
494.16547
432.48903
462.61987
414.64261
452.74531
405.5043
432.30963
399.34894
419.5896
394.97168
409.78296
391.54596
402.45454
95.339788
112.56623
82.605189
110.65857
79.148931
107.03694
77.335315
101.61714
75.973249
98.346368
74.956735
95.586039
74.147043
93.611068
40.404162
57.457907
38.049852
62.307005
37.279176
60.679197
36.713266
57.678425
36.156766
55.963331
35.700124
54.415669
35.319587
53.371363
34.933356
50.754834
33.768286
56.668272
33.408263
55.483656
33.01941
52.766038
32.551004
51.217939
32.149045
49.956707
31.812393
49.109391
33.148763
47.561514
32.171052
53.681819
31.892684
52.87676
31.52573
50.232195
31.068909
48.466714
30.691846
47.477573
30.385657
46.777506
31.290569
44.406605
30.495673
50.188405
30.236299
49.553341
29.868137
46.953276
29.435862
45.506258
29.097441
44.709489
28.830421
44.169146
29.218541
41.040779
28.560832
46.082662
28.265759
45.539988
27.890794
43.203292
27.486219
42.041783
27.183381
41.418327
26.954359
41.022895
27.028655
37.653403
26.483322
41.768948
26.131707
41.137244
25.754874
39.15186
25.385853
38.175485
25.121487
37.659935
24.931289
37.338139
25.088982
34.733948
24.668602
38.089323
24.28589
37.353277
23.915581
35.652122
23.582053
34.820076
23.352174
34.379344
23.193341
34.106595
23.404005
32.227392
23.097703
34.990637
22.705831
34.228714
22.35253
32.785908
22.053957
32.080128
21.853648
31.707929
21.718795
31.483799
21.870739
29.937778
21.705106
32.374168
21.382326
31.728478
21.079156
30.520999
20.826112
29.917761
20.656348
29.601397
20.541204
29.416703
20.587801
28.011203
20.488843
30.153862
20.225826
29.623459
19.96948
28.615424
19.757061
28.097519
19.612587
27.830851
19.512722
27.680372
19.487519
26.317181
19.458521
28.209627
19.243938
27.719663
19.004724
26.832749
18.801325
26.392051
18.659507
26.252148
18.559231
26.134444
18.651014
25.024975
18.642845
26.665351
18.407663
26.138804
18.109258
25.342229
17.851786
24.968358
17.677889
24.875691
17.586052
24.820867
18.27772
24.659286
18.309652
26.394668
18.074002
25.88848
17.73655
25.141108
17.439506
24.850433
17.257667
24.817182
17.214788
24.796434
19.285549
28.152408
19.901354
32.463984
20.020041
33.26449
19.902356
33.050912
19.73981
33.034922
19.641751
33.122264
19.614363
33.286235
29.221747
51.710977
33.390971
70.110024
35.535403
78.619266
36.580599
81.898634
37.014253
83.94117
37.26549
85.326086
37.453322
86.37532
95.542311
178.73335
118.54819
264.62453
132.34745
312.20867
141.15555
337.1681
145.94246
353.13215
148.81062
363.43544
150.70605
370.52413
462.57123
750.94787
569.44822
1100.7221
645.78108
1356.8585
698.7145
1516.1778
729.89688
1614.5036
748.97616
1673.0712
761.31216
1712.3855
2167.4007
2962.05
2491.9249
3917.7534
2760.2641
4701.2492
2961.7142
5259.7119
3086.2457
5621.9836
3163.1323
5844.8869
3211.8346
5987.9662
8823.0193
10613.704
9722.7649
13219.3
10704.149
16008.072
11498.545
17975.667
12009.818
19213.194
12325.298
19976.986
12522.212
20455.084
31268.737
35072.536
32359.557
39439.341
34652.215
45832.753
36844.519
50623.814
38337.681
53645.289
39254.723
55507.224
39837.989
56671.535
88512.232
93661.686
86585.653
94661.52
89327.582
103259.35
93523.632
111513
97094.76
117185.5
99326.974
120621.34
100654.93
122730.4
189491.85
184242.89
183788.24
178898.29
183287.61
185874.86
187983.73
196266.07
192923.75
204243.86
196401.05
209259.4
198502.88
212196.14
324883.37
305086.97
317885.39
297968.13
313726.57
303953.37
315635.04
314428.53
319752.38
322611.17
323077.24
327631.78
325054.51
330443.28
574437.7
550053.01
571393.4
545962.07
569080.02
552161.71
567208.61
558398.72
567093.53
561961.3
567230.59
563394.39
566956.39
563904.29
1235365.6
1244145.2
1234207
1231830.7
1234847.8
1219221.5
1224786.3
1197120
1212093.7
1177157.8
1201140.9
1162501.1
1193192.3
1153116.4
5160639.7
5142189.8
5117138.5
5074280
5096220.9
5036324.1
5083104.1
5012964.3
5073963.9
4998181.9
5067429.1
4988682.3
5062512.2
4982052.4
4917093.2
4788099.1
4911523.2
4777215.6
4907207.8
4769068
4902670.5
4760687.1
4896059.4
4748756
4883702.8
4726625.6
1270329.6
1267045
1268201.3
1266804.3
1266785
1266599.3
1265809.3
1266579.8
1264911.5
1266644
1263536.6
1266342.8
513080.6
479534.8
514063.24
480785.35
514683.06
481607.86
515177.02
482268.89
515587.1
482860.62
515775.33
483156.22
246469.73
216698.35
247126.62
217381.35
247509.52
217832.47
247777.42
218238.57
247996.41
218695.97
248177.05
219050.46
116115.46
98408.565
116373.99
98322.09
116489.36
98336.498
116526.97
98334.834
116490.84
98329.109
116343.32
98342.813
38570.226
33692.057
38548.667
33634.128
38560.128
33616.434
38547.532
33574.609
38486.055
33507.466
38313.748
33379.417
9661.6824
9723.6553
9614.1527
9678.0493
9565.6251
9639.3687
9505.3796
9596.313
9423.736
9539.383
9294.5767
9436.0026
2226.8164
2171.1334
2210.3244
2159.5553
2196.5115
2147.3489
2180.6987
2135.0082
2158.9062
2119.0225
2121.7443
2090.3346
388.52883
396.7503
385.2101
393.18541
382.42194
390.32714
379.27937
387.5728
374.98607
384.1601
367.65415
378.1327
73.423586
91.98094
72.620151
90.552881
71.954298
89.676052
71.222315
88.838677
70.252345
87.839618
68.631219
86.143087
34.972972
52.506175
34.581718
51.619956
34.26275
51.061161
33.923268
50.554522
33.491668
49.967046
32.787451
48.999926
31.510383
48.418097
31.17407
47.68867
30.906089
47.148262
30.621939
46.670702
30.25552
46.119448
29.642392
45.229542
30.1141
46.233598
29.809546
45.640559
29.566582
45.180144
29.307953
44.709433
28.97383
44.165543
28.412994
43.300771
28.601074
43.764556
28.341505
43.311828
28.132582
42.949305
27.911065
42.561562
27.625431
42.042018
27.144646
41.212205
26.765464
40.740436
26.553887
40.426438
26.385419
40.174128
26.209363
39.897018
25.982819
39.500324
25.597216
38.722412
24.780074
37.108441
24.611992
36.855562
24.480114
36.655177
24.342602
36.434576
24.163494
36.116584
23.851932
35.476165
23.071213
33.910738
22.935932
33.691969
22.831575
33.516041
22.722547
33.320495
22.577806
33.042193
22.318657
32.493575
21.618584
31.321649
21.508279
31.136308
21.424516
30.985184
21.33687
30.814318
21.21862
30.572334
21.001343
30.105683
20.458377
29.286417
20.367905
29.136467
20.299119
29.014095
20.226898
28.873063
20.128415
28.67069
19.943886
28.284007
19.439063
27.577443
19.357744
27.460929
19.296131
27.371829
19.231534
27.26909
19.144452
27.117873
18.983981
26.82325
18.484875
26.071003
18.404275
26.001864
18.343538
25.957447
18.280026
25.904341
18.198075
25.816525
18.084293
25.622234
17.534651
24.801927
17.490617
24.779736
17.466105
24.771559
17.452554
24.752857
17.449298
24.698741
17.443514
24.544249
17.191804
24.806242
17.16835
24.814498
17.15496
24.832166
17.145717
24.841879
17.140643
24.823415
17.146118
24.724572
19.610739
33.413
19.612121
33.548223
19.62386
33.683981
19.64126
33.818466
19.668521
33.950757
19.737427
34.082907
37.61268
87.217347
37.807033
88.131941
38.010911
88.983837
38.244271
89.864942
38.556567
90.903027
39.125568
92.446572
152.0763
375.73048
153.62553
381.17444
155.1366
386.10512
156.8463
391.26735
159.19847
397.69137
163.57102
408.08727
769.84973
1740.0262
779.23165
1768.9439
788.26469
1794.5317
798.48101
1821.3706
812.38931
1855.675
836.31866
1914.0018
3244.3284
6087.6394
3282.6146
6196.7949
3318.7425
6292.3849
3359.3747
6393.39
3415.4674
6525.106
3514.3262
6754.2436
12651.846
20779.518
12803.247
21131.522
12943.539
21442.281
13099.205
21773.66
13311.662
22207.182
13683.176
22952.282
40218.068
57443.738
40646.655
58256.23
41038.4
58971.853
41467.937
59730.314
42050.787
60713.861
43071.48
62367.133
101490.47
124052.08
102356.16
125343.93
103117.04
126420.58
103911.52
127515.91
104923.28
128894.74
106560.93
131174.42
199754.45
213945.4
200920.92
215543.67
201850.87
216795.7
202735.07
217998.47
203775.99
219468.9
205348.09
221833.6
326103.41
331977.75
327032.97
333371.18
327665.3
334449
328179.1
335486.53
328744.07
336832.91
329602.34
339076.32
566436.04
564049.55
566141.94
564550.97
565819.49
565099.23
565547.63
565870.17
565447.07
567228.51
565676.93
569739.34
1188187.3
1147677.8
1184914.9
1144218.7
1181943.9
1142273.6
1179426.9
1141554.4
1177352.8
1141512.7
1176273.6
1141616.5
5059111.3
4977123.6
5063761
4979553.1
5067892.5
4981538.6
5072558.9
4983432.6
5079975.4
4986117.2
5091061.9
4988962.9
4862870.2
4696242.9
4847536.5
4677457.7
4841999.9
4671043.7
4839277.8
4668092.3
4837312.8
4665946.9
4835220.3
4663698
1259215.6
1260425.1
1256238.9
1255992.4
1254336.5
1253123.9
1253132
1249916.3
1252282.5
1248159.2
1251436.6
1246968
515303.17
482430.33
514744.18
482344.34
514328.02
482299.71
514106.23
482133.45
514101.96
482074.01
514140
482182.08
248122.51
219138.72
248073.52
219717.62
248096.57
220135.36
248185.68
220421.74
248282.54
220647.36
248421.11
220867.98
116086.23
98346.698
115888.96
98455.703
115904.33
98600.384
115968.23
98695.857
116031.01
98777.797
116094.65
98857.579
38018.594
33083.138
37668.512
32675.418
37567.62
32544.009
37539.013
32487.823
37523.969
32452.305
37512.131
32415.666
9052.3337
9163.366
8810.7777
8809.3728
8731.6673
8670.7951
8698.2719
8599.9868
8674.7384
8548.5381
8652.053
8493.5834
2043.8494
2015.2149
1966.1636
1923.026
1941.6285
1888.3117
1930.3383
1870.6429
1922.3295
1857.9273
1914.4437
1844.7447
352.00398
362.33406
336.73199
342.75434
331.9595
335.08303
329.5973
331.06702
327.88522
328.11958
326.18914
325.06616
65.118237
81.610587
61.778367
76.026769
60.80144
73.841388
60.298667
72.696519
59.930028
71.860863
59.560798
70.995208
31.222559
46.39382
29.723491
43.138013
29.308474
41.847972
29.082943
41.167598
28.91335
40.669261
28.740066
40.150119
28.239025
42.869354
26.937464
39.947714
26.58487
38.773831
26.386236
38.145974
26.235599
37.683948
26.08178
37.201484
27.115189
41.043555
25.888505
38.302085
25.558633
37.19189
25.372552
36.592926
25.233078
36.14962
25.092105
35.687084
26.021219
39.051142
24.928441
36.451876
24.52233
35.39875
24.331634
34.846879
24.202836
34.435114
24.074272
34.005791
24.683944
36.626617
23.789024
34.187478
23.424913
33.199386
23.2277
32.703343
23.080269
32.349069
22.93333
31.988579
23.099646
33.605459
22.35453
31.547531
22.049792
30.750349
21.886165
30.346679
21.763141
30.054864
21.637021
29.757543
21.679818
30.942314
21.0339
29.267731
20.763854
28.6205
20.617809
28.292557
20.507067
28.054029
20.392536
27.807964
20.455748
28.818133
19.893236
27.436398
19.657375
26.907456
19.534182
26.636269
19.446656
26.434548
19.361964
26.220916
19.474268
27.210552
19.003005
26.029708
18.860401
25.58951
18.77666
25.353699
18.70913
25.175944
18.636504
24.984927
18.597219
25.953885
18.332219
24.89712
18.216642
24.521088
18.146099
24.323663
18.086855
24.170266
18.020233
24.000111
17.979974
24.908378
17.745029
23.92253
17.655519
23.614539
17.600086
23.450867
17.551319
23.320432
17.494165
23.170916
17.364665
23.926374
17.171748
23.052012
17.101327
22.79228
17.054859
22.656261
17.013291
22.547164
16.964577
22.4197
17.101228
24.218276
16.930662
23.448568
16.867038
23.227893
16.827005
23.118053
16.792446
23.031917
16.753138
22.929859
19.82178
33.859988
19.708087
33.358789
19.716241
33.257261
19.721731
33.227317
19.722215
33.21114
19.716232
33.17387
39.999541
93.940684
40.446535
95.11781
40.922578
95.661991
41.193105
96.017004
41.382693
96.316063
41.540277
96.535209
168.79892
422.22595
173.89313
437.64784
177.00838
443.15911
178.85918
446.25061
180.16953
448.59423
181.25989
450.49157
870.89601
2005.6517
908.6517
2115.711
928.46681
2154.1379
940.76205
2174.4651
949.43554
2189.0343
956.89635
2201.4347
3663.9664
7142.0438
3836.9214
7642.3943
3922.8473
7828.3575
3976.344
7928.4525
4014.3452
8000.4651
4047.6204
8065.2152
14247.381
24182.248
14893.984
25727.764
15204.325
26307.416
15382.206
26621.896
15507.785
26849.008
15615.796
27048.765
44581.886
65061.258
46245.55
68458.466
47095.751
69768.963
47574.867
70471.477
47911.036
70970.724
48201.082
71405.917
108962.99
134875.9
111883.92
139651.2
113396.64
141557.61
114247.76
142570.96
114848.63
143274.76
115369.7
143872.95
207552.55
225661.25
210079.88
230476.74
211508.46
232527.22
212353.65
233627.35
212961.36
234375.33
213498.68
234989.56
331039.25
342582.5
332326.46
346572.34
333041.89
348482.11
333560.19
349607.16
333978.73
350390.35
334380.36
351021.94
566155.12
572786.29
565173.29
573198.53
564326.29
573379.47
564173.75
574024.61
564309.45
574696.14
564612.81
575343.91
1177071.4
1140760.5
1174337
1128845.3
1169530.9
1117941.1
1167325.3
1113595.4
1166496.3
1112586
1166228.9
1113321
5108264.2
4995677.9
5124314.5
5002948.7
5129489
5004656
5131560.8
5004835.1
5131989.6
5004047.4
5131375.6
5002469
4840840
4670242.7
4839087.9
4669375.7
4838405.4
4669973.6
4839953.6
4673643.8
4845826.2
4683683.3
4861784.1
4708672.6
4912178.4
4784721.1
1250518.2
1246034.4
1249404
1244765.1
1248428.4
1243145.5
1247618.8
1240284.2
1246686.6
1234686.8
1246500.4
1226116.1
1248650.4
1213840
514051.82
482262.37
513979.93
482384.65
513898.84
482388.67
513827.61
482049.14
513879.14
480849.22
514550.33
478275.81
516882.07
473763.36
248641.28
221253.4
248862.51
221717.12
249088.3
222190.69
249406.05
222687.03
249961.44
223137.67
250995.79
223380.45
253474.77
223405.95
116194.09
98960.712
116423.51
99218.524
116643.86
99527.703
116935.47
99912.256
117422.97
100473.49
118381.92
101168.1
120498.77
101882.77
37506.052
32355.952
37540.865
32311.201
37629.319
32343.868
37698.708
32405.234
37836.197
32428.733
38142.974
32431.162
38851.614
32585.858
8623.1543
8411.9933
8597.7655
8334.6683
8577.3177
8248.1712
8601.8305
8150.7276
8575.0958
8010.6808
8567.3485
7824.0563
8614.2395
7659.9018
1904.4104
1826.2472
1896.1273
1809.9628
1887.3257
1793.0199
1877.2736
1772.7705
1864.6392
1744.1572
1848.6157
1700.7197
1838.3208
1656.5374
324.01737
320.81637
322.15289
317.06216
320.13682
313.12936
317.78854
308.33547
315.16087
301.48273
310.61404
291.6152
306.39327
280.71198
59.076847
69.777371
58.640543
68.666716
58.156599
67.458375
57.556374
65.95001
56.696843
63.837725
55.389564
60.870951
53.794823
57.433246
28.506059
39.413666
28.286438
38.732345
28.029627
37.969867
27.703653
36.995206
27.232779
35.668233
26.498097
33.785865
25.525195
31.516734
25.873006
36.514806
25.671551
35.864208
25.427889
35.108748
25.109511
34.168547
24.646788
32.874996
23.92488
31.009878
22.949548
28.697107
24.900725
35.027756
24.709627
34.390022
24.471437
33.664501
24.143055
32.749735
23.655986
31.464941
22.90186
29.577154
21.875288
27.183716
23.899655
33.408268
23.719295
32.831113
23.485655
32.144437
23.151178
31.24548
22.635698
29.953833
21.838225
28.047528
20.740059
25.574597
22.744549
31.491779
22.55998
30.994105
22.327263
30.368966
21.993431
29.506503
21.458638
28.230398
20.636288
26.336025
19.518068
23.888044
21.466801
29.345712
21.290614
28.92686
21.052799
28.374926
20.722026
27.579565
20.190778
26.371704
19.380381
24.561485
18.299152
22.240985
20.245366
27.46628
20.105245
27.119639
19.919157
26.634705
19.628423
25.908782
19.118946
24.786367
18.343685
23.104947
17.327125
20.950858
19.256634
25.921217
19.14983
25.624946
18.985477
25.196557
18.713106
24.542632
18.241012
23.518755
17.522997
21.981815
16.590682
20.01292
18.534712
24.708866
18.432854
24.439704
18.280853
24.059084
18.026875
23.479979
17.606621
22.57244
16.964237
21.199406
16.118686
19.421581
17.925318
23.747671
17.829785
23.500904
17.689141
23.162232
17.459745
22.659803
17.100145
21.881198
16.547149
20.687841
15.797859
19.093526
17.410448
22.941927
17.326512
22.719663
17.206143
22.423094
17.013482
21.992276
16.710717
21.329381
16.238653
20.29866
15.574843
18.865924
16.894511
22.221286
16.82953
22.041685
16.738463
21.798803
16.592797
21.436829
16.337372
20.86852
15.927723
19.968713
15.334621
18.668757
16.695103
22.765238
16.647818
22.636054
16.580707
22.44908
16.470401
22.144738
16.274015
21.633479
15.899129
20.783272
15.323864
19.519398
19.693525
33.069788
19.675805
33.003319
19.642689
32.874079
19.57438
32.607341
19.434514
32.096277
19.134345
31.152865
18.501008
29.574091
41.673263
96.585963
41.804244
96.790644
41.960458
96.920722
42.136519
96.825003
42.30056
96.299515
42.261386
94.855415
41.240736
91.516341
182.20699
451.7173
183.21455
453.54009
184.5331
455.38079
186.26924
456.80245
188.39065
456.98452
189.87399
453.2469
185.98889
437.90973
964.24979
2212.1947
969.78299
2219.9314
977.34742
2227.4686
987.9006
2232.5621
1001.5816
2229.4077
1012.4994
2202.9463
993.85784
2104.9922
4082.1792
8132.718
4109.5464
8190.8909
4149.2495
8267.4966
4208.8938
8365.83
4295.5886
8475.7504
4397.0415
8555.3305
4418.215
8439.9565
15722.531
27243.489
15820.43
27421.538
15965.861
27655.553
16188.191
27956.585
16516.482
28290.604
16907.836
28474.408
17041.561
27991.83
48494.012
71832.657
48778.996
72223.963
49217.666
72740.398
49915.405
73425.251
50996.663
74247.092
52434.673
74880.415
53438.543
74267.926
115890.65
144441.08
116423.96
144982.17
117254.96
145676.12
118608.73
146593.87
120814.05
147707.04
124109.63
148591.22
127226.9
148409.27
214073.49
235545.44
214655.78
236080.95
215539.37
236688.9
216946.96
237320.51
219140.58
237659.72
222253.86
236797.82
226014.61
234437.67
334886.91
351548.02
335438.55
352056.13
336253.99
352446.9
337462.98
352360.03
339072.26
350927.02
340606.17
346185.92
341783.57
337346.29
565171.38
575947.52
565791.79
576495.38
566711.38
576681.16
567925.74
575598.08
568829.69
571964.31
565966.78
562668.33
555016.01
544335.45
1167082.2
1115440.7
1167622.2
1117302.3
1168869.9
1118885.7
1172277.5
1118157.5
1179818.4
1115305
1195277.3
1117670.1
1224647.6
1140468
5145628
5015594.3
5157517.1
5027522.5
5175176
5045374.8
5205802.8
5076418.5
5263830.8
5135287.1
5380962.7
5254948.8
5616072.7
5496467.5
4966936.2
4868670
5047195.4
4978165.2
5165858
5129617
5343900.1
5333101.4
1257546.4
1219143
1275438.6
1241546.4
1310478.1
1294684.6
1362174.9
1365692.3
523928.99
477166.93
536017.71
489181.69
557378.27
519697.87
573082.2
552407.01
259458.47
227839.42
268574.57
236563.03
283795.39
255860.85
300319.51
280424.99
124850.07
105349.41
131237.3
111220.11
141478.9
123288.73
152747.3
139141.22
40338.948
33755.567
42629.657
35854.563
46014.856
39980.641
48714.754
44823.085
8805.4081
7727.4486
9161.6215
8016.7594
9584.7144
8534.0356
9520.3858
8835.5224
1838.8738
1643.9417
1873.3939
1685.659
1878.7577
1738.9243
1706.9156
1650.8865
301.1647
273.11208
300.61628
274.26114
285.9616
268.67231
228.13375
226.71015
51.557216
54.045375
50.445524
52.994466
47.454701
51.174376
39.952092
45.847105
24.418437
29.351786
23.856711
28.588428
23.383943
28.38853
23.289051
29.215371
21.931443
26.541929
21.46314
25.789202
21.314015
25.813209
21.906779
27.226917
20.840713
24.978271
20.376379
24.191827
20.25087
24.194077
20.882581
25.594667
19.691729
23.382446
19.269551
22.638782
19.232361
22.713199
19.928618
24.160028
18.551786
21.874639
18.243756
21.257121
18.356767
21.432732
19.230658
23.020123
17.432808
20.428035
17.184065
19.895379
17.375756
20.147791
18.408731
21.924718
16.567363
19.330818
16.39468
18.893549
16.704155
19.255858
17.890747
21.200031
15.906507
18.522906
15.764747
18.121571
16.131574
18.530218
17.435882
20.58456
15.431139
17.94345
15.2668
17.50792
15.627923
17.891669
16.90205
19.916586
15.099899
17.603027
14.896654
17.10413
15.220336
17.417143
16.59288
19.594368
14.851081
17.337465
14.586631
16.742183
14.850943
16.982231
16.38931
19.409138
14.652804
17.210229
14.360356
16.554007
14.649418
16.808073
16.305244
19.457929
14.683833
18.126949
14.316639
17.260433
14.676727
17.385409
16.393056
20.201778
17.607164
27.529509
16.562043
24.903859
16.413293
22.700337
18.08346
25.308686
38.731456
85.980439
33.082115
72.445938
28.643116
54.19404
28.926764
53.160308
172.91815
405.7107
142.22653
339.38183
110.75247
229.54192
98.677412
200.19794
910.65468
1952.9849
765.33946
1620.7121
589.92062
1086.4141
490.30362
888.51942
4240.6641
8100.6374
3663.9333
6861.8759
2898.8414
4788.866
2366.2507
3707.8535
16792.437
27388.598
14980.658
24389.771
12329.462
18538.465
10194.18
14599.704
53201.641
73162.962
48716.337
67494.926
41760.223
56024.282
35515.209
46475.98
127164.98
148057.5
120389.95
141792.34
109121.36
128774.43
97323.552
116063.39
227572.15
234644.31
223206.27
232189.2
214951.4
224065.47
205987.22
217796.59
344427.37
337411.48
346207.81
341463.85
347224.06
340855.07
351198.14
346859.36
556212.7
544239.54
561908.01
555196.05
572632.03
562574.67
598592.15
584059.17
1235761
1166295.7
1242350.6
1183000.5
1254641.2
1206013.5
1273519.7
1233291.1
5706679.3
5603750.3
5578864.3
5500592.1
5434923.5
5386231.8
5289752.5
5270401.1
5195617.8
5144911.3
5115163.8
5055920.9
5051915
4982429.5
1340940.4
1327889.2
1324441.3
1299458.9
1367722.4
1348818
515030.17
523877.32
513783.62
517879.1
557782.14
563037.06
257731.47
277680.85
267302.24
282566.35
297242.59
309485.83
129148.09
145854.31
144354.71
158542.64
164827.6
172943.3
47201.23
53103.446
60072.561
65931.749
78188.454
81353.476
12721.56
13473.542
18775.111
20288.199
33176.768
34376.516
3674.87
3597.1111
6212.666
6168.5337
14962.981
15130.783
748.2006
736.78793
2199.9485
2168.3743
7862.1124
7528.7799
154.56369
136.52289
590.27857
544.19248
4601.3071
4213.7756
58.173385
44.521652
181.14591
161.27131
2158.404
1914.0085
47.342538
35.215954
78.416098
63.598984
819.3896
714.04387
44.375695
33.663145
56.013553
43.348915
347.94333
286.35334
41.414447
32.061706
48.98569
37.927895
137.32818
112.4204
38.241495
30.222116
44.778035
35.339245
76.138882
61.943562
34.921147
28.155355
40.189132
32.379405
55.385861
45.623791
31.802523
26.030979
35.746438
29.320792
44.838772
37.632441
29.212641
24.268544
32.194506
26.899581
36.799426
31.417345
26.746105
22.486475
29.100329
24.697709
31.942465
27.639304
24.745621
21.04572
26.391038
22.644933
29.894387
26.240917
23.344709
20.047601
24.6839
21.460738
28.123092
25.05194
22.38584
19.391862
23.672012
20.716869
27.353751
24.558391
21.782482
18.956766
23.098402
20.290425
27.386239
24.722362
21.827265
18.922597
23.101946
20.249096
27.600499
24.918343
24.6765
20.310366
24.596393
20.889322
28.172857
25.262833
48.794396
34.294248
37.85944
27.644806
32.01557
27.080565
222.61033
153.27616
145.72976
93.258541
67.477418
46.18418
1299.3102
961.25653
870.43648
590.14218
355.09877
227.55752
6152.0691
4889.1098
4427.2061
3338.7305
2101.875
1486.1332
26309.193
21232.67
20625.559
15997.205
10898.504
7929.4688
82837.911
68937.269
72991.691
59276.551
47693.237
36361.978
184047.49
172667.95
175903.01
161260.78
148987.88
126740.27
320343.18
322427.9
321575.27
318199.95
321164.21
308796.66
581894.66
590870.68
596946.12
604608.06
632920.22
637144.27
1275070.2
1284266.9
1285688.3
1302830.6
1385576.6
1417737.5
5076697.3
5070975.9
5013688
5019745.4
4976361.5
4996180.6
4978685.5
4917125.4
4948705.1
4989658.7
5037923.2
5105558.9
4971070.2
4909926.5
4938489.4
4976542.5
5023678.7
5093376.5
1191674.8
1354894.8
1272587.9
1256307.6
1274913.1
1309326.1
1187072.5
1340410.1
1268642.8
1258000.2
1279346.5
1312696.4
396124.52
575859.34
583329.77
563448.16
548022.36
536647.52
405233.62
584542.16
589170.35
568758.7
551680.39
536395.43
142399.02
241812.07
292369.83
304531.86
299847.08
287986.14
146826.64
250953.19
292138.15
298997.56
290703.57
275398.25
51599.255
93850.987
125998.51
146977.05
154753.31
151387.13
54078.907
98053.71
126527.73
142249.88
144694.53
137372.84
17114.777
32247.717
43015.938
50159.052
54074.865
54196.704
18339.499
33342.141
41690.964
46699.968
48417.77
46859.686
4862.0096
9323.7701
12063.41
13290.403
13842.101
13743.804
5301.9709
9472.7806
11071.84
11889.819
12051.014
11770.915
1122.6793
2163.6255
2752.0289
3006.7547
3206.6511
3412.0658
1238.1176
2146.3861
2445.9678
2635.7729
2792.0907
2969.4784
210.08961
412.50439
534.17678
602.41663
657.62857
696.98168
230.80389
394.863
461.59114
508.86718
541.67653
563.6492
36.194375
64.407272
81.017129
92.582409
104.76902
117.66145
38.128352
58.016083
67.514522
76.180499
85.043422
95.230579
13.014248
16.87023
19.939966
23.266545
27.841392
34.355861
13.077132
15.782085
18.32059
21.487586
25.874385
32.37157
10.844517
12.304281
14.259122
16.905449
20.779203
26.548311
10.750472
12.174759
14.169023
16.864416
20.776178
26.700914
10.722909
12.008558
13.876166
16.422533
20.094749
25.464035
10.632887
11.947229
13.8572
16.432444
20.118756
25.619701
10.74474
11.933745
13.685531
16.066933
19.462163
24.351454
10.555276
11.772619
13.564361
15.970876
19.381414
24.40134
10.706134
11.804787
13.434707
15.639399
18.738986
23.128357
10.498675
11.601931
13.253239
15.467827
18.579333
23.0859
10.694146
11.714064
13.19526
15.18404
17.938398
21.784477
10.463472
11.448946
12.932031
14.912309
17.672538
21.628788
10.65284
11.577758
12.897941
14.669472
17.097447
20.455962
10.430842
11.303987
12.622762
14.38043
16.815871
20.280317
10.624427
11.47526
12.669321
14.252303
16.389013
19.31354
10.407962
11.183942
12.351263
13.903875
16.045736
19.080595
10.578939
11.33731
12.377801
13.763586
15.618035
18.147092
10.380309
11.056371
12.069341
13.420819
15.278838
17.925317
10.539443
11.221057
12.13947
13.357989
14.979367
17.187511
10.346738
10.936956
11.817405
12.999229
14.619001
16.95058
10.506041
11.129847
11.950775
13.030129
14.464757
16.42356
10.319062
10.833765
11.597406
12.632755
14.053553
16.127166
10.494974
11.082298
11.835994
12.815299
14.109427
15.873009
10.313336
10.785794
11.467814
12.393628
13.669172
15.55096
10.502508
11.091981
11.806487
12.709049
13.898114
15.525936
10.314743
10.772143
11.402023
12.253201
13.441955
15.219181
10.513904
11.109415
11.80478
12.671551
13.820843
15.435761
10.322471
10.777159
11.380489
12.195949
13.374323
15.252342
10.559934
11.186407
11.907371
12.822422
14.149276
16.32433
10.345184
10.842736
11.497884
12.458171
14.136347
17.551843
10.659141
11.640351
12.85483
14.732845
18.342455
25.756579
10.524751
11.529771
13.069993
15.964063
22.540452
37.589433
12.637749
18.243611
26.066816
38.936541
64.075607
111.52788
13.130921
20.429027
31.898059
53.031255
97.487303
184.23766
35.572667
89.182863
159.04826
261.95842
437.25882
726.36802
42.242544
108.58668
202.38746
352.48261
622.55276
1073.1868
233.522
630.65651
1093.8971
1691.0706
2588.6486
3911.3423
277.17465
736.19653
1301.3715
2088.0313
3329.3752
5191.9076
1479.7427
3604.0246
5874.6863
8594.2398
12423.044
17751.477
1676.7791
4052.7789
6665.3822
9968.6827
14778.101
21409.331
7641.8369
16356.477
24447.591
33649.921
45865.47
61838.658
8279.9889
17633.907
26559.704
37092.037
51568.459
69443.79
31538.495
57961.334
79121.522
103869.72
132142.34
163524.59
33045.096
60912.172
84115.11
111288.03
144076.11
173872.67
109116.32
170573.6
217161.61
281408.23
313462.92
323367.77
111872.51
177338.08
232950.48
297007.13
325134.63
331934.16
342364.26
480602.59
586902.17
619423.07
607695.3
591090.91
347393.41
501964.54
623960.81
637721.21
615385.79
593901.35
1125319.8
1445000.8
1393455.2
1311796.4
1271991.8
1260779.7
1141523.2
1457868.1
1387438.9
1298358.5
1257767.8
1245991.3
5033551.2
4945958.8
4963535.7
5006225.6
5053815.3