/*--------------------------------*- C++ -*----------------------------------*\
| =========                 |                                                 |
| \\      /  F ield         | OpenFOAM: The Open Source CFD Toolbox           |
|  \\    /   O peration     | Version:  2206                                  |
|   \\  /    A nd           | Website:  www.openfoam.com                      |
|    \\/     M anipulation  |                                                 |
\*---------------------------------------------------------------------------*/
FoamFile
{
    version     2.0;
    format      ascii;
    arch        "LSB;label=32;scalar=64";
    class       volScalarField;
    location    "200";
    object      p;
}
// * * * * * * * * * * * * * * * * * * * * * * * * * * * * * * * * * * * * * //

dimensions      [1 -1 -2 0 0 0 0];

internalField   nonuniform List<scalar> 
50904
(
106651.77
105940.46
106623.58
105910.01
106652.38
105941.03
106620.32
105905.42
106653.34
105942.96
106618.68
105903.97
106655.38
105947.36
106616.89
105903.77
106659.33
105956.64
106616.85
105908.77
106665.84
105971.74
106618.43
105918.58
106676.04
105993.99
106623.26
105935.3
106691.69
106026.35
106634.16
105962.72
106715.02
106072.49
106652.1
106002.9
106748.94
106136.12
106681.79
106061.61
106797.05
106221.55
106727.87
106144.35
106863.52
106334.14
106793.02
106254.26
106953.42
106478.02
106884.77
106398.17
107068.48
106653.73
107004
106576.38
107211.54
106861.28
107153.53
106789.41
107358.37
107065.61
107307.43
107000.95
107489.18
107242.7
107444.26
107184.51
107606.03
107396.43
107565.13
107343.15
107705.08
107525.11
107666.06
107474.88
107788.52
107631.2
107751.8
107584.8
107856.12
107714.95
107820.5
107671.83
107910.58
107778.67
107874.79
107737.47
107948.72
107818.6
107910
107775.59
107973.68
107840.2
107930.81
107793.16
107990.63
107852.17
107943.87
107799.99
108002.58
107858.79
107952.5
107801.53
108011.46
107862.74
107958.78
107800.7
108018.3
107865.23
107963.69
107799.05
108023.52
107867.56
107967.39
107798.22
108027.45
107869.38
107970.26
107797.67
108030.47
107870.7
107972.53
107797.55
108032.81
107871.85
107974.34
107797.68
108034.58
107872.85
107975.67
107798.2
108035.97
107873.9
107976.72
107799
108036.97
107874.82
107977.46
107799.75
108038.14
107875.92
107978.34
107800.6
106711.55
106055.05
107027.06
106574.6
107155.99
106843.29
107226.31
106998.86
107267.61
107091.48
107294.94
107152.98
107315.06
107199.03
106704.26
106044.85
107016.98
106557.62
107145.97
106823.58
107216.55
106978.59
107258.02
107070.91
107285.38
107131.8
107305.44
107177.34
106699.59
106041.48
107010.48
106549.37
107139.96
106814.05
107211.4
106970.54
107253.77
107064.79
107281.93
107127.47
107302.55
107174.27
106693.77
106037.6
107001.25
106536.41
107130.66
106797.53
107202.23
106953.85
107244.59
107047.54
107272.58
107109.62
107293.02
107155.56
106689.22
106038.56
106993.33
106526.41
107123.35
106785.65
107195.93
106943.58
107239.3
107038.94
107268.17
107102.25
107289.26
107149.02
106685.19
106041.7
106984.57
106516.36
107114.71
106770.85
107187.5
106927.94
107231.13
107023.43
107260.14
107086.85
107281.14
107134.25
106683.46
106050.25
106977.42
106510.24
107108.14
106761.64
107181.81
106918.1
107226.18
107014.14
107255.46
107077.84
107276.71
107125.43
106687.88
106068.87
106975.25
106509.3
107105.75
106756.35
107179.67
106910.19
107224.17
107005.47
107253.67
107068.67
107275.02
107116.03
106698.92
106098.14
106979.07
106514.71
107109.32
106755.99
107183.37
106907.32
107228.07
107001.63
107257.55
107064.35
107278.78
107110.92
106721.84
106145.02
106993.05
106534.37
107121.63
106766.95
107195.38
106913.49
107240
107006.03
107269.24
107067.85
107290.11
107113.03
106762.8
106216.92
107024.63
106577.03
107150.88
106799.22
107223.57
106939.91
107267.58
107029.48
107296.18
107089.41
107316.35
107132.65
106823.52
106315.08
107074.46
106643.18
107197.78
106854.28
107268.8
106989.06
107311.62
107075.25
107339.22
107132.42
107358.34
107173.03
106914.82
106451.41
107154.77
106752.17
107273.93
106947.08
107342.34
107075.25
107382.95
107156.92
107408.92
107209.89
107426.46
107246.78
107034.04
106621.01
107260.31
106892.65
107375.52
107075.71
107440.91
107196.82
107479.34
107272.85
107503.54
107321.55
107519.63
107354.78
107183.78
106826.09
107392.29
107068.41
107503.46
107239.65
107565.68
107352.63
107601.77
107422.33
107624.02
107466.31
107638.34
107495.36
107341.26
107035.41
107532.84
107255.44
107638.09
107414.05
107696.52
107517.26
107729.85
107579.76
107749.95
107618.45
107762.39
107643.13
107481.82
107218.62
107657.42
107421.05
107755.8
107567.97
107810.04
107662.13
107840.55
107718.16
107858.6
107752.2
107869.39
107773.13
107605.25
107377.75
107765.42
107565.8
107856.62
107702.18
107906.69
107788.28
107934.53
107838.65
107950.75
107868.62
107960.24
107886.63
107711.05
107514.49
107856.03
107689.27
107938.44
107813.87
107983.6
107891.41
108008.55
107936.25
108023
107962.61
108031.67
107978.69
107800.21
107629.01
107931.1
107791.23
108004.27
107904.97
108044.54
107974.6
108066.91
108014.84
108080
108038.54
108087.95
108053.15
107870.03
107719.01
107987.11
107865.99
108052.22
107970.58
108088.24
108033.89
108108.37
108070.29
108120.34
108091.86
108127.73
108105.42
107922.68
107783.91
108028.11
107917.55
108086.35
108012.61
108118.71
108070.1
108136.97
108103.3
108147.92
108123.07
108154.64
108135.35
107954.8
107819.57
108052.2
107943.32
108105.56
108029.39
108135.18
108082.3
108151.93
108112.63
108161.92
108130.57
108168.05
108141.68
107971.55
107834.32
108063.84
107950.81
108114.5
108030.78
108142.68
108080.33
108158.5
108108.86
108167.88
108125.77
108173.65
108136.17
107980.65
107838.12
108069.76
107948.94
108118.97
108025.84
108146.43
108073.55
108161.77
108100.94
108170.88
108117.24
108176.46
108127.26
107985.69
107837.15
108073.05
107944.43
108121.58
108019.5
108148.79
108066.17
108163.94
108092.99
108172.92
108108.97
108178.42
108118.78
107989.13
107833.7
108075.49
107938.79
108123.74
108013.33
108150.89
108059.31
108166.01
108085.83
108174.94
108101.73
108180.4
108111.47
107991.64
107830.18
108077.48
107933.99
108125.9
108009.23
108153.17
108055.13
108168.31
108081.48
108177.24
108097.33
108182.67
108107.05
107993.62
107827.08
108079.08
107930.05
108127.85
108006.99
108155.31
108053.55
108170.47
108080
108179.4
108095.83
108184.83
108105.62
107995.24
107824.98
108080.53
107927.55
108129.87
108005.99
108157.68
108053.61
108172.96
108080.79
108181.84
108096.75
108187.19
108106.46
107996.61
107824.09
108081.84
107926.55
108131.71
108006.46
108159.81
108055.09
108175.14
108082.44
108184.01
108098.47
108189.33
108108.08
107997.79
107824.08
108082.93
107926.47
108133.21
108007.45
108161.66
108056.69
108177.28
108084.29
108186.25
108100.51
108191.46
108110.16
107998.71
107824.6
108083.8
107927.02
108134.36
108008.55
108163.02
108058.14
108178.73
108085.85
108187.68
108102.1
108192.81
108111.81
107999.51
107825.49
108084.56
107927.98
108135.27
108009.62
108164.06
108059.4
108179.8
108087.16
108188.74
108103.39
108193.87
108113.15
108000.11
107826.36
108085.12
107928.87
108135.88
108010.43
108164.68
108060.17
108180.37
108087.91
108189.16
108104.05
108194.18
108113.64
108000.82
107827.38
108085.84
107929.99
108136.64
108011.38
108165.44
108061.09
108181.11
108088.83
108189.84
108104.95
108194.82
108114.42
107332.73
107239.4
107347.84
107273.06
107360.4
107300.1
107375.9
107332.3
107403.62
107388.74
107468.44
107520.01
107323.26
107217.98
107337.91
107250.45
107349.95
107276
107365.06
107307.17
107393.24
107365.68
107460.06
107503.89
107320.59
107215.54
107335.87
107249.92
107348.46
107277.27
107363.62
107309.17
107390.23
107364.43
107455.08
107497.92
107310.97
107196.58
107325.84
107230
107338.11
107256.81
107353.52
107289.59
107381.56
107349.13
107448.14
107488.81
107307.55
107190.8
107322.78
107224.88
107335.37
107251.96
107350.82
107285.16
107378.12
107344.26
107443.61
107484.01
107299.65
107176.3
107315.27
107210.31
107327.99
107237.7
107343.64
107271.5
107371.67
107332.7
107438.52
107476.98
107295.19
107167.34
107310.69
107201.14
107323.58
107228.5
107339.43
107262.1
107367.51
107323.07
107434.62
107469.32
107293.39
107157.58
107308.83
107191.19
107321.68
107218.52
107337.58
107252.15
107365.8
107313.33
107433.09
107461.31
107296.95
107151.73
107312.18
107185.01
107324.9
107212.02
107340.65
107245.32
107368.65
107305.99
107435.42
107454.43
107307.88
107152.56
107322.75
107185.17
107335.19
107211.46
107350.64
107244.03
107378.15
107303.6
107443.84
107451.14
107333.37
107170.12
107347.62
107201.26
107359.55
107226.38
107374.42
107257.54
107400.91
107314.74
107464.04
107457.76
107374.34
107207.87
107387.74
107236.9
107398.99
107260.37
107413.05
107289.5
107438.12
107343.19
107497.68
107478.74
107441.05
107278.26
107453.29
107304.5
107463.57
107325.75
107476.46
107352.1
107499.51
107400.69
107554.13
107524.27
107532.52
107382.44
107543.39
107405.54
107552.55
107424.3
107564.12
107447.53
107584.96
107490.37
107633.86
107598.94
107649.43
107518.83
107658.73
107538.29
107666.64
107554.27
107676.72
107574.05
107695.07
107610.44
107737.41
107701.89
107771.88
107662.65
107779.76
107678.67
107786.53
107691.96
107795.24
107708.53
107811.22
107739.07
107847.33
107814.65
107877.55
107789.49
107884.32
107802.88
107890.21
107814.09
107897.84
107828.15
107911.88
107854.23
107942.98
107917.7
107967.36
107900.54
107973.32
107911.97
107978.55
107921.62
107985.38
107933.82
107997.94
107956.47
108025.19
108010.75
108038.01
107990.89
108043.37
108000.88
108048.14
108009.38
108054.38
108020.17
108065.74
108040.08
108090.1
108087.66
108093.82
108064.25
108098.78
108073.21
108103.26
108080.89
108109.09
108090.64
108119.67
108108.66
108142.24
108151.75
108133.24
108115.68
108137.91
108123.92
108142.18
108131.03
108147.74
108140.05
108157.9
108156.65
108179.19
108196.24
108159.74
108144.7
108164.17
108152.32
108168.36
108159.03
108173.84
108167.54
108183.68
108183.15
108203.65
108219.95
108172.69
108150.12
108176.86
108157.24
108180.9
108163.7
108186.2
108171.9
108195.7
108186.77
108214.44
108220.76
108177.97
108144.06
108181.98
108150.87
108185.9
108157.19
108191.03
108165.23
108200.18
108179.64
108217.79
108211.43
108180.59
108134.75
108184.49
108141.35
108188.32
108147.57
108193.33
108155.51
108202.23
108169.64
108218.95
108199.81
108182.43
108126.01
108186.25
108132.47
108190.05
108138.62
108195.05
108146.5
108203.72
108160.44
108219.77
108189.25
108184.34
108118.57
108188.1
108124.96
108191.87
108131.09
108196.78
108138.97
108205.36
108152.86
108221.12
108180.84
108186.55
108114.04
108190.27
108120.38
108194.01
108126.5
108198.88
108134.35
108207.4
108148.17
108222.88
108175.63
108188.68
108112.55
108192.37
108118.89
108196.09
108125.04
108200.94
108132.92
108209.41
108146.74
108224.72
108173.76
108190.96
108113.25
108194.55
108119.46
108198.25
108125.48
108203.1
108133.2
108211.5
108146.83
108226.58
108173.43
108193.05
108114.71
108196.57
108120.74
108200.16
108126.61
108204.89
108134.21
108213.24
108147.81
108228.32
108174.41
108195.03
108116.7
108198.38
108122.58
108201.79
108128.34
108206.38
108135.84
108214.61
108149.28
108229.58
108175.64
108196.28
108118.34
108199.52
108124.22
108202.84
108130.06
108207.38
108137.54
108215.56
108150.76
108230.44
108176.81
108197.35
108119.71
108200.6
108125.65
108203.92
108131.55
108208.36
108138.91
108216.35
108151.78
108231.04
108177.54
108197.67
108120.17
108200.94
108126.05
108204.26
108131.82
108208.71
108139.11
108216.69
108152.03
108231.33
108177.84
108198.32
108120.99
108201.67
108127.01
108204.99
108132.66
108209.38
108139.86
108217.22
108152.63
108231.7
108178.19
107545.75
107653.17
107584.52
107700.69
107597.38
107714.35
107604.02
107720.36
107609.36
107724.42
107615.55
107728.39
107539.25
107643.34
107579.55
107693.88
107592.99
107708.37
107599.38
107715.11
107604.58
107719.96
107610.89
107725.21
107535.22
107640.49
107577.29
107695.32
107592.16
107710.28
107599.16
107717.66
107603.72
107723.24
107609.74
107728.61
107530.03
107637.67
107572.86
107696.98
107587.39
107713.3
107595.03
107720.13
107601.01
107725.81
107607.15
107732.67
107526.89
107638.57
107571.52
107702.91
107586.76
107721.52
107594.42
107729.53
107600.64
107735.03
107608.63
107741.97
107523.37
107638.78
107569.06
107708.51
107584.93
107729.21
107593.08
107738.65
107599.39
107745.29
107607.19
107752.83
107521.48
107638.67
107568.94
107715.07
107585.48
107738.46
107594.12
107749.53
107600.91
107757.7
107608.89
107767.09
107521.23
107637.1
107570.22
107719.79
107587.43
107745.86
107596.42
107758.53
107603.55
107768.09
107612.08
107779.23
107524.23
107635.8
107574.58
107724.68
107592.46
107753.46
107601.85
107767.78
107609.32
107778.78
107618.29
107791.66
107532.46
107636.17
107583.73
107730.29
107602.17
107761.49
107611.92
107777.3
107619.71
107789.61
107629.07
107804.14
107550.32
107641.73
107601.34
107738.61
107619.93
107771.36
107629.82
107788.17
107637.76
107801.39
107647.32
107817.14
107580.28
107656.74
107630.07
107753.36
107648.47
107786.61
107658.32
107803.83
107666.27
107817.46
107675.84
107833.85
107630.13
107689.11
107676.74
107780.53
107694.2
107812.5
107703.61
107829.13
107711.24
107842.34
107720.38
107858.35
107701.4
107744.63
107743.46
107827.19
107759.41
107856.52
107768.07
107871.77
107775.11
107883.92
107783.49
107898.73
107795.02
107824.51
107831.36
107895.16
107845.33
107920.79
107852.92
107934.23
107859.12
107945.09
107866.43
107958.37
107895.62
107915.56
107926.3
107974.54
107938.28
107996.35
107944.79
108007.86
107950.13
108017.22
107956.45
108028.8
107984.01
108001.9
108010.17
108051.58
108020.54
108070.27
108026.17
108080.16
108030.81
108088.29
108036.4
108098.47
108061.14
108082.94
108084.11
108125.92
108093.35
108142.25
108098.37
108150.91
108102.56
108158.08
108107.66
108167.19
108123.43
108152.92
108144.41
108191.57
108152.63
108205.69
108157.14
108213.26
108160.87
108219.56
108165.42
108227.68
108174.11
108212.55
108194.46
108249.13
108201.79
108261.36
108205.88
108267.98
108209.36
108273.65
108213.75
108281.25
108209.97
108253.65
108230.02
108289.01
108236.71
108299.75
108240.54
108305.67
108243.89
108310.87
108248.16
108318.05
108232.88
108274
108252.61
108308.18
108259.1
108318.31
108262.93
108324.04
108266.36
108329.18
108270.68
108336.23
108241.94
108271.24
108261.03
108303.82
108267.62
108313.92
108271.58
108319.75
108275.07
108324.94
108279.25
108331.81
108243.59
108258.99
108261.99
108290.18
108268.6
108300.19
108272.63
108306.06
108276.15
108311.27
108280.21
108317.97
108243.44
108245.08
108261.29
108275.2
108267.88
108285.12
108271.94
108291.04
108275.46
108296.26
108279.4
108302.81
108243.37
108232.58
108260.71
108261.86
108267.23
108271.73
108271.27
108277.66
108274.75
108282.9
108278.58
108289.32
108244.03
108222.65
108261.04
108251.5
108267.51
108261.36
108271.52
108267.35
108274.98
108272.62
108278.73
108278.94
108245.24
108216.38
108261.94
108244.85
108268.33
108254.7
108272.3
108260.72
108275.71
108266.02
108279.36
108272.27
108246.73
108213.85
108263.21
108242.09
108269.56
108251.91
108273.5
108257.93
108276.88
108263.23
108280.47
108269.38
108248.36
108213.14
108264.65
108241.13
108270.94
108250.85
108274.84
108256.84
108278.18
108262.13
108281.71
108268.21
108249.92
108213.79
108266.08
108241.56
108272.34
108251.3
108276.2
108257.37
108279.5
108262.74
108282.97
108268.82
108251.03
108214.56
108267.09
108241.95
108273.3
108251.7
108277.11
108257.91
108280.36
108263.47
108283.77
108269.62
108251.72
108215.34
108267.67
108242.59
108273.83
108252.41
108277.6
108258.8
108280.82
108264.54
108284.17
108270.75
108252.13
108215.78
108267.97
108242.89
108274.05
108252.63
108277.76
108258.96
108280.91
108264.63
108284.19
108270.82
108252.33
108216.03
108268.13
108243.47
108274.24
108253.33
108277.9
108259.48
108280.94
108264.84
108284.13
108270.79
108252.5
108216.2
108268.19
108243.72
108274.29
108253.61
108277.85
108259.46
108280.75
108264.45
108283.88
108270.25
107622.34
107731.65
107628.86
107733.47
107635.87
107734.1
107644.46
107732.57
107656.14
107725.21
107669.71
107696.53
107656.53
107572.46
107617.88
107729.44
107624.81
107732.12
107632.08
107733.36
107641.16
107732.77
107654.01
107727.04
107669.26
107700.61
107657.82
107578.45
107617.06
107733.6
107623.87
107736.87
107631.32
107738.39
107640.48
107737.74
107653.43
107732.52
107669.63
107708
107659.7
107587.6
107613.95
107738.61
107621.21
107743.17
107629.15
107746.15
107639.2
107746.54
107653.36
107742.56
107671.28
107720.66
107663.57
107602.75
107615.67
107749.31
107622.02
107754.7
107630.48
107758.84
107640.73
107760.58
107655.56
107758.09
107675.06
107739.08
107669.99
107624.26
107616.21
107760.93
107623.48
107767.91
107631.3
107773.55
107642.98
107777.16
107659.36
107777.79
107681.31
107762.92
107679.64
107652.67
107617.64
107776.24
107626.7
107783.48
107635.64
107790.64
107646.69
107797.12
107665.12
107801.15
107689.79
107791.44
107692.74
107687.71
107621.14
107790.27
107630
107799.34
107640.32
107808.38
107653.63
107817.71
107673.44
107826.68
107702.01
107823.95
107710.49
107729.84
107627.82
107804.57
107637.22
107815.7
107648.48
107827.3
107663.2
107840.15
107685.28
107854.55
107718.31
107860.39
107734.11
107779.04
107639.07
107818.94
107649.06
107832.19
107661.17
107846.63
107677.6
107863.6
107702.73
107884.48
107740.6
107900.5
107764.44
107834.94
107657.61
107833.46
107668.09
107848.61
107681.12
107865.84
107699.15
107887.17
107727.15
107915.04
107770.29
107942.46
107803.02
107895.59
107686.29
107851.17
107697.22
107867.9
107711.18
107887.83
107730.84
107913.55
107761.73
107948.52
107809.93
107987.71
107850.93
107960.24
107730.61
107875.77
107741.67
107893.44
107756.23
107915.47
107777.12
107944.81
107810.18
107986.43
107862.01
108036.73
107909.19
108028.3
107793.05
107915.36
107803.86
107933.16
107818.64
107956.43
107840.37
107988.75
107875.06
108035.72
107929.25
108094.57
107978.64
108100.48
107874.87
107973.52
107884.98
107990.77
107899.43
108014.48
107921.36
108048.87
107956.68
108099.85
108011.15
108164.07
108058.76
108178.64
107963.66
108042.15
107972.79
108058.15
107986.41
108081.28
108007.68
108116.08
108042.13
108168.68
108094.38
108234.9
108137.4
108253.58
108042.56
108109.95
108050.7
108124.32
108063.29
108146.09
108083.43
108179.9
108116.19
108231.92
108165.36
108297.77
108204.22
108318.82
108113.05
108177.15
108120.25
108189.85
108131.75
108209.84
108150.5
108241.7
108181.24
108291.53
108227.22
108355.44
108263.26
108378.74
108170.59
108236.92
108177.03
108248.28
108187.38
108266.16
108204.18
108294.69
108231.93
108340
108274.13
108400.83
108311.06
108430.4
108218.62
108289.82
108224.62
108300.18
108233.87
108315.95
108248.68
108340.71
108273.12
108380.45
108311.42
108437.16
108350.84
108474.34
108252.86
108326.06
108258.46
108335.48
108266.79
108349.35
108279.82
108370.73
108301.3
108405.36
108336.02
108457.84
108378.33
108503.26
108275
108343.57
108280.11
108351.95
108287.69
108364.38
108299.63
108383.75
108319.46
108415.65
108352.25
108465.81
108396.57
108517.47
108283.37
108338.6
108288.03
108346.12
108295.22
108357.71
108306.9
108376.44
108326.66
108408.1
108359.77
108459.04
108405.97
108515.65
108284.16
108324.36
108288.62
108331.5
108295.68
108342.78
108307.42
108361.51
108327.52
108393.66
108361.64
108446.15
108410.02
108506.98
108283.26
108309.04
108287.7
108316.17
108294.86
108327.61
108306.97
108346.92
108327.88
108380.2
108363.6
108434.97
108414.27
108500.63
108282.36
108295.49
108286.83
108302.76
108294.16
108314.57
108306.71
108334.73
108328.5
108369.69
108365.86
108427.52
108418.42
108496.47
108282.47
108285.15
108287.02
108292.62
108294.55
108304.93
108307.55
108326.23
108330.2
108363.25
108369.07
108424.42
108422.86
108495.14
108283.05
108278.54
108287.65
108286.3
108295.35
108299.24
108308.71
108321.73
108332.05
108361.13
108371.92
108425.75
108426.12
108497.85
108284.12
108275.66
108288.78
108283.64
108296.65
108297.07
108310.37
108320.54
108334.29
108362.26
108374.77
108429.7
108428.56
108501.17
108285.34
108274.47
108290.06
108282.66
108298.07
108296.67
108312.07
108321.24
108336.44
108364.57
108377.21
108433.99
108430.4
108503.38
108286.55
108275.14
108291.28
108283.54
108299.34
108297.83
108313.49
108322.88
108338.07
108367.27
108378.87
108437.32
108431.49
108504.26
108287.3
108275.96
108292.03
108284.47
108300.12
108298.89
108314.35
108324.38
108339.03
108369.45
108379.72
108439.18
108431.83
108503.68
108287.63
108277.13
108292.32
108285.66
108300.41
108300.08
108314.68
108325.8
108339.4
108371.04
108379.99
108440.09
108431.79
108502.54
108287.59
108277.21
108292.27
108285.87
108300.37
108300.55
108314.67
108326.5
108339.4
108371.83
108379.91
108440.29
108431.51
108501.29
108287.5
108277.17
108292.15
108285.82
108300.23
108300.62
108314.53
108326.66
108339.26
108371.99
108379.7
108440.08
108431.2
108500.3
108287.24
108276.64
108291.89
108285.37
108300.01
108300.3
108314.34
108326.47
108339.08
108371.79
108379.51
108439.56
108430.92
108499.16
107615.58
107452.4
107598.21
107379.9
107620.18
107366.17
107646.6
107347.92
107617.61
107458.27
107600.25
107384.54
107621.86
107369.23
107647.53
107349.86
107620.02
107466.77
107602.45
107390.75
107623.52
107372.84
107648.47
107351.99
107624.57
107480.86
107606.51
107401.01
107626.47
107379.09
107650.09
107355.84
107631.69
107501.23
107612.83
107416.87
107631.07
107389.05
107652.82
107362.04
107642.31
107528.49
107622.33
107439.16
107638.02
107403.77
107657.01
107371.5
107656.77
107562.86
107635.45
107468.12
107647.8
107423.98
107663.09
107385
107676.38
107605.47
107653.52
107505.51
107661.58
107451.52
107672
107404.24
107702.58
107657.13
107678.24
107553.05
107681.09
107488.84
107685.16
107431.65
107736.6
107717.86
107710.94
107611.47
107707.77
107537.34
107703.95
107468.98
107779.58
107786.45
107753
107680.66
107743.31
107598.24
107729.92
107517.9
107832.35
107861.97
107805.81
107760.83
107790.43
107673.95
107766.72
107582.81
107895.47
107942.91
107869.72
107849.8
107849.79
107763.14
107815.75
107663.87
107968.56
108029.27
107944.7
107947.65
107922.83
107866.42
107879.73
107762.57
108051.7
108121.82
108030.31
108053.07
108008.39
107980.39
107959.52
107877.6
108131.9
108207.64
108112.8
108149.7
108092.5
108087
108041.11
107989.54
108199.93
108280.71
108182.97
108230.59
108164.6
108176.08
108114.9
108085.77
108260.42
108346.38
108245.12
108301.4
108228.48
108252.82
108179.38
108167.85
108310.92
108404.56
108297.69
108364.42
108282.46
108319.34
108235.46
108237.91
108355.63
108456.81
108344.76
108421.02
108330.47
108377.39
108284.02
108296.79
108388.99
108495.22
108380.78
108464.2
108368.45
108422.47
108322.82
108342.27
108413.76
108519.3
108409.24
108494.24
108398.61
108454.75
108354.59
108376.2
108428.35
108526.21
108428.03
108509.13
108418.6
108472.36
108376.25
108395.24
108436.78
108526.12
108439.82
108517.37
108430.48
108480.67
108389.67
108403.66
108443.77
108525.93
108448.13
108522.39
108437.65
108483.99
108398.52
108406.4
108449.31
108524.8
108453.31
108523.28
108441.26
108482.18
108403.84
108405.14
108453.43
108525.15
108456.44
108522.54
108442.96
108477.26
108407.3
108401.83
108455.71
108527.2
108458.03
108521.56
108443.48
108471.28
108409.55
108397.78
108457.18
108528.7
108458.41
108520.14
108443.24
108465.35
108410.99
108393.62
108457.78
108529.04
108458.28
108517.93
108442.61
108460.5
108411.91
108390.32
108457.93
108528.01
108457.85
108515.3
108441.95
108456.71
108412.5
108388.09
108457.58
108525.89
108457.09
108512.11
108441.17
108453.41
108412.84
108386.28
108457
108523.59
108456.16
108508.87
108440.3
108450.44
108412.94
108384.67
108456.32
108521.53
108455.21
108506.05
108439.47
108447.9
108412.89
108383.37
108455.71
108519.95
108454.39
108503.83
108438.76
108445.92
108412.79
108382.38
108455.11
108518.23
108453.59
108501.5
108438.1
108443.88
108412.78
108381.41
106108.74
106799.57
106315.03
106946.51
106564.81
107151.69
106113.27
106802.74
106320.54
106950.46
106569.82
107155.88
106118.1
106805.57
106325.89
106953.94
106574.63
107159.59
106126.35
106810.3
106334.65
106959.33
106582.52
107165.2
106139
106817.1
106347.02
106966.64
106593.6
107172.65
106157.63
106827.02
106364.81
106976.9
106609.44
107182.82
106183.49
106840.87
106388.95
106990.64
106631.04
107196.31
106218.78
106859.77
106420.9
107008.67
106659.39
107213.63
106268.08
106886.68
106464.82
107033.57
106698.08
107236.88
106333.66
106923.37
106523.01
107066.86
106750.09
107268.05
106418.92
106972.49
106598.46
107110.95
106818.22
107309
106530.19
107039.12
106697.38
107170.37
106907.99
107363.7
106670.03
107126.7
106822.4
107248.62
107021.86
107435.22
106838.48
107236.93
106975.4
107348.39
107163.8
107527.36
107035.38
107371.72
107155.67
107470.99
107333.94
107643.97
107230.58
107512.48
107338.09
107602.96
107507.3
107770.99
107399.36
107638.01
107496.9
107722.88
107657.8
107888.21
107546.24
107751.99
107635.92
107832.95
107788.82
107995.48
107668.16
107849.74
107752.22
107927.83
107900.62
108084.77
107767.67
107932.22
107844.64
108005.08
107989.22
108157.11
107848.25
108002.98
107921.43
108074.46
108062.28
108223.75
107908.46
108059.47
107976.98
108127.58
108113.47
108272.75
107945.04
108099.75
108011.05
108164.64
108142.01
108305.88
107967.74
108126.77
108030.53
108189.04
108155.95
108326.83
107980.63
108145.1
108040.93
108204.83
108161.57
108339.07
107988.05
108157.88
108046.52
108215.11
108163.23
108346.47
107992.57
108166.92
108049.59
108221.85
108162.96
108350.86
107995.54
108173.45
108051.2
108226.33
108161.94
108353.18
107997.78
108178.16
108052.31
108229.46
108161.14
108354.69
107999.36
108181.49
108052.85
108231.42
108160.31
108355.17
108000.71
108184
108053.21
108232.81
108159.54
108355.31
108001.69
108185.79
108053.59
108233.68
108159.15
108355.35
108002.54
108187.04
108053.9
108234.19
108158.95
108355.18
108003.36
108187.99
108054.26
108234.55
108158.89
108355.07
108004.02
108188.64
108054.57
108234.76
108158.94
108354.96
108004.78
108189.4
108054.96
108235.03
108159.04
108354.86
108325.85
108180.53
108016.76
107815.51
107541.44
107179.26
108306.99
108161.47
107999.73
107798
107525.1
107162.81
108326.07
108181.92
108017.97
107816.6
107542.38
107179.8
108306.66
108162.11
108000.11
107798.11
107524.63
107161.19
108326.14
108183.67
108019.27
107817.67
107543.29
107180.4
108306.21
108163.15
108000.61
107798.29
107524.3
107160.05
108326.51
108185.87
108021.04
107819.26
107544.78
107181.62
108305.87
108164.5
108001.39
107798.71
107524.14
107158.89
108327.02
108188.6
108023.25
107821.34
107546.96
107183.82
108305.45
108166.23
108002.44
107799.44
107524.44
107158.41
108327.72
108192.12
108026.14
107824.15
107550.1
107187.37
108305.03
108168.5
108003.9
107800.59
107525.27
107158.65
108328.67
108196.59
108029.89
107827.93
107554.57
107192.83
108304.57
108171.44
108005.98
107802.43
107527.03
107160.31
108329.98
108202.21
108034.75
107833.01
107560.93
107201.22
108304.17
108175.26
108008.94
107805.41
107530.6
107165.01
108331.94
108209.32
108041.19
107840.03
107570.13
107213.94
108303.86
108180.27
108013.17
107809.95
107536.52
107173.43
108334.65
108218.21
108049.6
107849.51
107583.04
107232.63
108303.87
108186.72
108019.07
107816.76
107546.17
107188.14
108339.14
108229.3
108060.71
107862.59
107601.5
107260.15
108304.56
108195.04
108027.54
107827.25
107561.87
107212.86
108345.27
108242.81
108075.41
107880.42
107627.29
107299.27
108305.94
108205.56
108039.25
107842.36
107585.1
107249.61
108355.34
108260.45
108095.84
107905.43
107663.35
107354.01
108310.12
108219
108055.64
107864.25
107619.13
107303.71
108368.13
108280.45
108121.7
107939.22
107712.75
107427.88
108314.82
108235.12
108078.4
107896.05
107668.16
107379.05
108378.18
108301.13
108153.7
107983.22
107777.32
107523.22
108320.13
108252.15
108107.34
107939.19
107734.44
107478.29
108391.98
108325.15
108190.79
108033.52
107848.64
107625.42
108327.52
108270.35
108140.07
107987.71
107806.75
107584.33
108405.82
108347.13
108223.92
108080.01
107914.51
107718.71
108335.94
108286.75
108170.14
108033.04
107873.6
107680.9
108421.11
108369.87
108258.09
108126.45
107977.41
107804.6
108345.3
108302.58
108199.09
108076.27
107935.57
107768.16
108435
108388.62
108287.51
108167.42
108032.29
107878.44
108354.09
108315.65
108223.58
108113.39
107988.46
107841.97
108448.67
108405.73
108314.22
108205.3
108081.35
107942.16
108362.65
108327.2
108245.23
108146.57
108035.16
107905.84
108464
108422.08
108338.61
108238.63
108123.86
107995.3
108371.96
108336.97
108263.21
108174.67
108074.14
107957.86
108484.87
108441.19
108361.5
108268.33
108160.77
108039.35
108385.05
108347.29
108279.2
108199.03
108106.79
107999.5
108510.23
108462.21
108383.09
108293.71
108189.93
108071.78
108400.55
108358.11
108292.8
108218.25
108130.74
108027.72
108533.19
108477.98
108399.95
108313
108211.29
108094.09
108414.69
108366.11
108302.26
108231.77
108146.89
108045.42
108555.12
108491.23
108413.06
108328.1
108227.53
108110.06
108427.81
108372.15
108309.31
108242
108158.57
108057.32
108573.03
108501.98
108424.55
108340.24
108240.01
108121.81
108439.82
108376.55
108314.57
108249.71
108167.08
108065.54
108590.28
108510.01
108433.11
108349.81
108249.63
108130.66
108450.65
108379.6
108318.61
108255.76
108173.59
108071.6
108604.39
108516.36
108440.32
108357.73
108257.29
108137.48
108460.17
108381.67
108321.78
108260.54
108178.7
108076.27
108616.68
108521.13
108446.08
108364.01
108263.35
108142.78
108468.51
108382.99
108324.31
108264.31
108182.68
108079.86
108627.15
108524.7
108450.49
108369.19
108268.13
108146.86
108475.57
108383.83
108326.3
108267.3
108185.86
108082.7
108635.72
108527.37
108454.1
108373.31
108271.91
108150.08
108481.56
108384.3
108327.94
108269.57
108188.32
108084.9
108642.9
108529.36
108456.92
108376.5
108274.94
108152.67
108486.51
108384.56
108329.22
108271.38
108190.28
108086.65
108648.73
108530.92
108459.25
108379.1
108277.32
108154.65
108490.61
108384.75
108330.22
108272.87
108191.81
108087.98
108653.47
108532.05
108461.06
108381.08
108279.15
108156.19
108493.92
108384.83
108330.97
108273.94
108192.94
108089
108657.52
108532.73
108462.33
108382.52
108280.53
108157.34
108496.91
108384.74
108331.48
108274.72
108193.79
108089.76
108661.84
108534.49
108464.1
108384.26
108282.12