/*--------------------------------*- C++ -*----------------------------------*\
| =========                 |                                                 |
| \\      /  F ield         | OpenFOAM: The Open Source CFD Toolbox           |
|  \\    /   O peration     | Version:  2206                                  |
|   \\  /    A nd           | Website:  www.openfoam.com                      |
|    \\/     M anipulation  |                                                 |
\*---------------------------------------------------------------------------*/
FoamFile
{
    version     2.0;
    format      ascii;
    arch        "LSB;label=32;scalar=64";
    class       surfaceScalarField;
    location    "200";
    object      phi;
}
// * * * * * * * * * * * * * * * * * * * * * * * * * * * * * * * * * * * * * //

dimensions      [1 0 -1 0 0 0 0];

oriented        oriented;

internalField   nonuniform List<scalar> 
146294
(
1.4543455e-06
-3.7852514e-07
-2.050472e-07
2.7813208e-07
-1.149041e-06
-5.1228166e-07
-3.7203557e-07
3.765465e-07
1.9621048e-06
1.0883512e-06
-1.7961498e-07
-4.2524992e-07
-8.6201794e-07
-2.8706921e-07
-5.7240455e-07
1.435544e-06
3.0756893e-06
-7.9706833e-07
-4.6701208e-07
6.5385987e-07
-2.6706488e-06
-9.6908745e-07
-8.2101026e-07
8.0203033e-07
3.691706e-06
2.2271568e-06
-4.1568671e-07
-8.3271156e-07
-1.9554513e-06
-6.4770137e-07
-1.009596e-06
2.6282977e-06
4.6108847e-06
-1.1656655e-06
-7.7068349e-07
1.00473e-06
-4.1463155e-06
-1.3618811e-06
-1.3488232e-06
1.1899138e-06
5.3106591e-06
3.3038681e-06
-6.95729e-07
-1.1768652e-06
-3.0126275e-06
-1.0777041e-06
-1.3724299e-06
3.7444231e-06
6.3696504e-06
-1.5720113e-06
-1.1287006e-06
1.4127223e-06
-5.852414e-06
-1.7958369e-06
-1.9690819e-06
1.6336781e-06
7.152052e-06
4.5230741e-06
-1.0174924e-06
-1.5516591e-06
-4.2216711e-06
-1.5735746e-06
-1.7737894e-06
4.9968951e-06
8.5161245e-06
-2.0694683e-06
-1.5400936e-06
1.9202327e-06
-7.9555018e-06
-2.3319853e-06
-2.6750387e-06
2.1821365e-06
9.3719257e-06
5.9817289e-06
-1.3777603e-06
-2.0117779e-06
-5.6791497e-06
-2.1344366e-06
-2.2781927e-06
6.488803e-06
1.1066299e-05
-2.6685367e-06
-2.0280402e-06
2.516042e-06
-1.042589e-05
-2.995459e-06
-3.4938496e-06
2.8404895e-06
1.2040064e-05
7.718683e-06
-1.8004398e-06
-2.5782059e-06
-7.3863406e-06
-2.7911366e-06
-2.9138309e-06
8.2937518e-06
1.4314005e-05
-3.4287791e-06
-2.640801e-06
3.2511309e-06
-1.3523592e-05
-3.8550706e-06
-4.4864844e-06
3.6731028e-06
1.5488604e-05
9.9516396e-06
-2.3311916e-06
-3.3091743e-06
-9.5404903e-06
-3.5878902e-06
-3.7452861e-06
1.0638612e-05
1.8438184e-05
-4.3898915e-06
-3.395685e-06
4.168524e-06
-1.7461944e-05
-4.9459629e-06
-5.6821699e-06
4.7228207e-06
1.9857004e-05
1.2812362e-05
-2.9828448e-06
-4.2407645e-06
-1.2309838e-05
-4.5463509e-06
-4.8033992e-06
1.3628257e-05
2.364366e-05
-5.5955614e-06
-4.3290667e-06
5.3069204e-06
-2.2421636e-05
-6.3293734e-06
-7.117319e-06
6.0420751e-06
2.5366106e-05
1.6438313e-05
-3.7876965e-06
-5.4220762e-06
-1.5806946e-05
-5.7020458e-06
-6.1546843e-06
1.741932e-05
2.9796174e-05
-6.9860626e-06
-5.2503638e-06
6.6055598e-06
-2.8494376e-05
-7.8704401e-06
-8.6048322e-06
7.5050009e-06
3.1649127e-05
2.0788193e-05
-4.5684936e-06
-6.8064678e-06
-2.018699e-05
-6.8913572e-06
-7.6726982e-06
2.1779762e-05
3.8089451e-05
-8.7961725e-06
-6.3125867e-06
8.3253429e-06
-3.6556398e-05
-9.9356804e-06
-1.0306023e-05
9.4884067e-06
4.0237916e-05
2.6532003e-05
-5.4742166e-06
-8.5846934e-06
-2.5837758e-05
-8.267859e-06
-9.6840534e-06
2.7656878e-05
4.9693243e-05
-1.120513e-05
-7.5258111e-06
1.0648688e-05
-4.7923574e-05
-1.2679146e-05
-1.2244585e-05
1.2143177e-05
5.2167777e-05
3.4531122e-05
-6.5133053e-06
-1.0944957e-05
-3.3752204e-05
-9.8637659e-06
-1.2354369e-05
3.5802252e-05
6.297232e-05
-1.3805276e-05
-8.5049481e-06
1.3089015e-05
-6.1276918e-05
-1.5581568e-05
-1.4107713e-05
1.4933273e-05
6.5483748e-05
4.3762841e-05
-7.2743121e-06
-1.3548832e-05
-4.3258276e-05
-1.1355623e-05
-1.5182045e-05
4.4855177e-05
8.2864707e-05
-1.7380326e-05
-9.7737758e-06
1.649378e-05
-8.0709328e-05
-1.9545575e-05
-1.5506074e-05
1.8744089e-05
8.5064561e-05
5.7518431e-05
-8.3795628e-06
-1.7100148e-05
-5.6693357e-05
-1.2412583e-05
-1.9046352e-05
5.8076172e-05
0.00010714067
-2.1427103e-05
-1.0639853e-05
2.0377822e-05
-0.0001052253
-2.3805263e-05
-1.6281508e-05
2.292034e-05
0.00010880103
7.4065121e-05
-9.1985814e-06
-2.1066827e-05
-7.3606374e-05
-1.2981814e-05
-2.3152415e-05
7.3981506e-05
0.00011138876
-2.10114e-05
-1.1074728e-05
2.0001963e-05
-0.00010994444
-2.3207434e-05
-1.6475727e-05
2.2347298e-05
0.00011244312
7.6898258e-05
-9.7308583e-06
-2.0652428e-05
-7.6724948e-05
-1.319045e-05
-2.2582978e-05
7.6482443e-05
0.00011643774
-2.0747694e-05
-1.1149108e-05
1.9914046e-05
-0.00011552971
-2.2761083e-05
-1.6177918e-05
2.2038339e-05
0.00011686269
8.0092448e-05
-9.9395646e-06
-2.0294142e-05
-8.0337287e-05
-1.3015044e-05
-2.2075663e-05
7.9231627e-05
0.00012228573
-2.0407966e-05
-1.0866547e-05
1.9819682e-05
-0.00012197999
-2.2159103e-05
-1.5476722e-05
2.1794423e-05
0.00012194922
8.3067847e-05
-9.6185895e-06
-1.9999804e-05
-8.3796976e-05
-1.228829e-05
-2.1707862e-05
8.1889863e-05
0.00013201544
-1.9705032e-05
-1.055087e-05
1.9915932e-05
-0.000132542
-2.0326879e-05
-1.5068548e-05
2.1828651e-05
0.0001301055
8.3144842e-05
-8.3949001e-06
-1.9839748e-05
-8.4233805e-05
-1.0809481e-05
-2.1591614e-05
8.2930779e-05
0.0001457731
-1.9901195e-05
-9.8958325e-06
2.0265218e-05
-0.00014679215
-1.8831019e-05
-1.3984415e-05
2.225213e-05
0.00014126787
8.1421214e-05
-7.2052421e-06
-2.0016076e-05
-8.2495981e-05
-9.2106979e-06
-2.1926666e-05
8.2918092e-05
0.00015984127
-2.0214283e-05
-8.7961309e-06
2.0610187e-05
-0.00016133686
-1.7507124e-05
-1.2077595e-05
2.2680453e-05
0.00015276113
8.0056578e-05
-5.9565812e-06
-2.0342567e-05
-8.1176944e-05
-7.3890847e-06
-2.2399221e-05
8.3127072e-05
0.00017090377
-2.0981308e-05
-6.9328888e-06
2.1072896e-05
-0.00017285858
-1.7048252e-05
-9.0810529e-06
2.3174819e-05
0.00016178067
8.1752154e-05
-4.8984126e-06
-2.0694989e-05
-8.3096634e-05
-5.7847449e-06
-2.2914665e-05
8.6014239e-05
0.00014116875
-1.6929638e-05
-5.4502379e-06
1.7015026e-05
-0.00014273678
-1.3128656e-05
-6.4664409e-06
1.8666579e-05
0.00013301623
6.8601571e-05
-3.9274827e-06
-1.6687989e-05
-6.9814138e-05
-4.2374442e-06
-1.855875e-05
7.248437e-05
0.00011524953
-1.3551506e-05
-4.3435992e-06
1.364477e-05
-0.00011644942
-1.0081049e-05
-4.4049141e-06
1.4927695e-05
0.00010834137
5.6902652e-05
-3.1662548e-06
-1.3333729e-05
-5.7881653e-05
-2.9343281e-06
-1.4866699e-05
6.0385197e-05
9.333877e-05
-1.0822188e-05
-3.5431407e-06
1.0884441e-05
-9.4201465e-05
-7.7519911e-06
-2.9231198e-06
1.18809e-05
8.7728069e-05
4.6699406e-05
-2.5524247e-06
-1.0644094e-05
-4.7491321e-05
-1.8864171e-06
-1.1871521e-05
4.9771026e-05
7.4269914e-05
-8.4966198e-06
-2.9765243e-06
8.5611483e-06
-7.4901041e-05
-5.8874855e-06
-1.9116377e-06
9.3180427e-06
6.9827891e-05
3.7452729e-05
-2.1362651e-06
-8.3298427e-06
-3.8035666e-05
-1.1689908e-06
-9.300635e-06
4.0148466e-05
6.0435626e-05
-6.8492093e-06
-2.5555448e-06
6.9007298e-06
-6.090811e-05
-4.6031966e-06
-1.232077e-06
7.4936482e-06
5.6865614e-05
3.0653451e-05
-1.8168434e-06
-6.6961376e-06
-3.1125938e-05
-7.1931663e-07
-7.4641805e-06
3.3064758e-05
4.8635735e-05
-5.4874175e-06
-2.2078362e-06
5.4872087e-06
-4.8983215e-05
-3.5885544e-06
-8.118994e-07
5.9604165e-06
4.5843709e-05
2.4858325e-05
-1.4859103e-06
-5.3690148e-06
-2.5307662e-05
-4.9117611e-07
-5.9625332e-06
2.7004175e-05
3.8419566e-05
-4.3054465e-06
-1.9366859e-06
4.3114658e-06
-3.8696717e-05
-2.7642537e-06
-6.0363871e-07
4.6770807e-06
3.6298476e-05
1.9688656e-05
-1.2515678e-06
-4.1993044e-06
-2.0029133e-05
-3.7603194e-07
-4.6710791e-06
2.1480331e-05
3.0256716e-05
-3.3679427e-06
-1.7340158e-06
3.3783167e-06
-3.0469738e-05
-2.1343382e-06
-5.3184957e-07
3.6699641e-06
2.8649309e-05
1.5510746e-05
-1.0700228e-06
-3.2763481e-06
-1.5783884e-05
-3.4933123e-07
-3.6499411e-06
1.6999654e-05
2.3649269e-05
-2.6045561e-06
-1.4356349e-06
2.6366988e-06
-2.3979766e-05
-1.6148035e-06
-3.6380715e-07
2.7956103e-06
2.2300414e-05
1.2097393e-05
-8.4626423e-07
-2.5395773e-06
-1.238612e-05
-2.4049711e-07
-2.836137e-06
1.3209883e-05
1.7587287e-05
-1.8716844e-06
-9.4985435e-07
1.8576565e-06
-1.8059018e-05
-1.1197583e-06
-1.2094058e-07
1.9332389e-06
1.6530939e-05
8.9201564e-06
-5.4558572e-07
-1.8605499e-06
-9.2319633e-06
-1.0920102e-07
-2.0994622e-06
9.7685612e-06
1.2427461e-05
-1.2409126e-06
-4.9557022e-07
1.1646801e-06
-1.2805489e-05
-7.2313958e-07
2.6050223e-08
1.2082076e-06
1.1795397e-05
6.2672206e-06
-2.8454988e-07
-1.2924483e-06
-6.4767119e-06
-4.1914785e-08
-1.5049145e-06
6.9817021e-06
8.3517138e-06
-7.7104399e-07
-1.935791e-07
6.5341259e-07
-8.5360475e-06
-4.4026234e-07
6.8901375e-08
6.9305951e-07
8.0560606e-06
4.2108535e-06
-1.108529e-07
-8.6078678e-07
-4.2947984e-06
-1.5861119e-08
-1.0438975e-06
4.7884277e-06
4.8443763e-06
-4.0640485e-07
-3.7908568e-08
2.928406e-07
-4.8864489e-06
-2.2394391e-07
4.8866126e-08
3.2336421e-07
4.764985e-06
2.4533223e-06
-2.0664296e-08
-5.0137601e-07
-2.4485275e-06
1.3306885e-09
-6.3614068e-07
2.8483177e-06
1.5789824e-06
-1.1172984e-07
5.626341e-08
-1.5614245e-06
-5.1013801e-08
6.609034e-08
1.612772e-06
8.1187738e-07
-1.6447217e-07
-7.7979934e-07
-2.1791566e-07
9.8010992e-07
1.3452752e-06
-4.6690806e-07
-2.4737904e-07
-1.0562348e-06
-5.4920272e-07
-3.3736636e-07
1.6594408e-06
3.6553867e-07
-4.5405582e-07
-8.1822944e-08
-2.9656802e-07
-5.6895121e-07
-7.3745771e-08
4.5903427e-07
1.619283e-07
-4.3501561e-07
-4.0084076e-08
-1.4088166e-07
-5.5756443e-07
-3.3635448e-08
1.8417712e-07
8.4361705e-08
-4.2095533e-07
-2.2243172e-08
-7.6177287e-08
-5.4021729e-07
-2.0469514e-08
8.7483691e-08
5.0758994e-08
-4.1120288e-07
-1.3668603e-08
-4.6842262e-08
-5.2396136e-07
-1.3471414e-08
4.7974239e-08
3.4967653e-08
-4.0403891e-07
-9.4632989e-09
-3.2667892e-08
-5.0930979e-07
-9.8336305e-09
3.0149523e-08
2.7408466e-08
-7.4167511e-09
-3.9826589e-07
-2.5764493e-08
-8.008491e-09
-4.9542583e-07
2.1532833e-08
2.7443966e-06
-8.4137112e-07
-5.8518224e-07
-2.3979331e-06
-8.8193749e-07
-7.7809276e-07
3.0574691e-06
7.8827066e-07
-8.1692133e-07
-1.9393969e-07
-7.0060149e-07
-9.0809016e-07
-2.0419831e-07
9.4487727e-07
3.7148305e-07
-7.8891938e-07
-9.6416175e-08
-3.4315046e-07
-8.944836e-07
-1.0168839e-07
4.2592936e-07
2.0164694e-07
-7.6954256e-07
-5.3902911e-08
-1.89363e-07
-8.7630646e-07
-6.0004249e-08
2.2300425e-07
1.2494372e-07
-7.5659614e-07
-3.3511862e-08
-1.1804645e-07
-8.5912432e-07
-3.8630041e-08
1.3292e-07
8.7949286e-08
-7.4745308e-07
-2.3457508e-08
-8.3097922e-08
-8.431802e-07
-2.7748788e-08
8.9920141e-08
7.0140992e-08
-1.8591588e-08
-7.4042926e-07
-6.5989732e-08
-2.2316395e-08
-8.2751479e-07
6.8783413e-08
4.0745627e-06
-1.1490129e-06
-9.8679913e-07
-3.7007955e-06
-1.1463458e-06
-1.3176611e-06
4.3880482e-06
1.1920362e-06
-1.1154557e-06
-3.2643645e-07
-1.0930967e-06
-1.1884936e-06
-3.6961172e-07
1.399598e-06
5.7344087e-07
-1.0805966e-06
-1.6352658e-07
-5.4118846e-07
-1.1789972e-06
-1.8636455e-07
6.4862065e-07
3.1574185e-07
-1.0565954e-06
-9.2289592e-08
-3.0135605e-07
-1.1616441e-06
-1.0881507e-07
3.4719945e-07
1.9767926e-07
-1.0404422e-06
-5.8246029e-08
-1.89098e-07
-1.1437656e-06
-6.9823882e-08
2.1099441e-07
1.4014683e-07
-1.0290206e-06
-4.135494e-08
-1.3367079e-07
-1.1259719e-06
-5.0282946e-08
1.4488717e-07
1.1229869e-07
-3.3154666e-08
-1.020355e-06
-1.0640099e-07
-4.0640332e-08
-1.1075525e-06
1.1220301e-07
5.550142e-06
-1.4907421e-06
-1.4331873e-06
-5.1646723e-06
-1.4511993e-06
-1.9418259e-06
5.8517171e-06
1.6252382e-06
-1.4485755e-06
-4.7157206e-07
-1.522268e-06
-1.5136467e-06
-5.6729169e-07
1.8853658e-06
7.8812349e-07
-1.4059077e-06
-2.3740491e-07
-7.5691219e-07
-1.5079583e-06
-2.8601531e-07
8.8208575e-07
4.3676289e-07
-1.3767236e-06
-1.3445558e-07
-4.2378061e-07
-1.4895995e-06
-1.6330164e-07
4.7289039e-07
2.7486127e-07
-1.3574742e-06
-8.5246601e-08
-2.6711015e-07
-1.4704343e-06
-1.0363331e-07
2.8950536e-07
1.9567466e-07
-1.3443575e-06
-6.0741315e-08
-1.8940468e-07
-1.4511508e-06
-7.4041412e-08
2.0014959e-07
1.5719789e-07
-4.8766924e-08
-1.3348981e-06
-1.5104484e-07
-5.9560047e-08
-1.4311708e-06
1.5613736e-07
7.2885807e-06
-1.9179423e-06
-1.9235143e-06
-6.8920859e-06
-1.8515889e-06
-2.6532891e-06
7.5734425e-06
2.127045e-06
-1.8666936e-06
-6.3113915e-07
-2.0187264e-06
-1.9404971e-06
-7.9429078e-07
2.4429526e-06
1.034536e-06
-1.8146282e-06
-3.1797979e-07
-1.0060264e-06
-1.9389837e-06
-3.9910087e-07
1.1461079e-06
5.7431693e-07
-1.7785599e-06
-1.8000455e-07
-5.648362e-07
-1.9166745e-06
-2.2683158e-07
6.1553759e-07
3.6146138e-07
-1.7542972e-06
-1.1419819e-07
-3.5677241e-07
-1.8910968e-06
-1.4409464e-07
3.763449e-07
2.5709885e-07
-1.7375242e-06
-8.1331653e-08
-2.5328137e-07
-1.8651116e-06
-1.0280667e-07
2.5987864e-07
2.0634912e-07
-6.5175896e-08
-1.7254174e-06
-2.0204669e-07
-8.2367455e-08
-1.8385313e-06
2.0257618e-07
9.3871417e-06
-2.4529364e-06
-2.4998091e-06
-8.9361198e-06
-2.3633189e-06
-3.5041601e-06
9.6874969e-06
2.7362535e-06
-2.3899173e-06
-8.1973284e-07
-2.6106791e-06
-2.4842549e-06
-1.0689139e-06
3.1318117e-06
1.3321174e-06
-2.3246657e-06
-4.1268257e-07
-1.3026661e-06
-2.489372e-06
-5.3503333e-07
1.4731667e-06
7.3937475e-07
-2.2798083e-06
-2.3266837e-07
-7.315687e-07
-2.4654583e-06
-3.0287372e-07
7.9150286e-07
4.6472733e-07
-2.2501468e-06
-1.4690904e-07
-4.6167768e-07
-2.4357517e-06
-1.9158343e-07
4.8250957e-07
3.2974967e-07
-2.2299905e-06
-1.0411131e-07
-3.2712633e-07
-2.4050546e-06
-1.3585481e-07
3.3210041e-07
2.6380501e-07
-8.2989022e-08
-2.2158214e-06
-2.6016069e-07
-1.080205e-07
-2.3735499e-06
2.5795346e-07
1.2098936e-05
-3.1468638e-06
-3.2267078e-06
-1.1534345e-05
-3.0332687e-06
-4.5484378e-06
1.2431197e-05
3.518006e-06
-3.0690082e-06
-1.0543767e-06
-3.3612179e-06
-3.1967644e-06
-1.4100503e-06
4.0226377e-06
1.7103174e-06
-2.9856412e-06
-5.307292e-07
-1.675638e-06
-3.21042e-06
-7.0300384e-07
1.8919432e-06
9.4727674e-07
-2.9279015e-06
-2.9856856e-07
-9.3911622e-07
-3.1844953e-06
-3.9708141e-07
1.0155594e-06
5.9353829e-07
-2.8896878e-06
-1.8788432e-07
-5.9077674e-07
-3.1486329e-06
-2.5007962e-07
6.161719e-07
4.1926827e-07
-2.8637884e-06
-1.3253292e-07
-4.1674568e-07
-3.1108849e-06
-1.7611468e-07
4.2178018e-07
3.335075e-07
-1.0490423e-07
-2.845843e-06
-3.2953775e-07
-1.3882073e-07
-3.0721196e-06
3.2554199e-07
1.5598743e-05
-4.0315439e-06
-4.1329798e-06
-1.4901695e-05
-3.8857121e-06
-5.8263334e-06
1.5958947e-05
4.5302106e-06
-3.935711e-06
-1.3458803e-06
-4.3345406e-06
-4.109784e-06
-1.8332543e-06
5.1774848e-06
2.2001383e-06
-3.8304948e-06
-6.7730933e-07
-2.158775e-06
-4.1377844e-06
-9.120161e-07
2.4371501e-06
1.2156234e-06
-3.7576308e-06
-3.8028615e-07
-1.2067695e-06
-4.1128943e-06
-5.1265332e-07
1.3063052e-06
7.5855459e-07
-3.7096726e-06
-2.3845296e-07
-7.5594444e-07
-4.0721675e-06
-3.2080275e-07
7.8855044e-07
5.32747e-07
-3.6775934e-06
-1.6720087e-07
-5.3015766e-07
-4.0275761e-06
-2.24125e-07
5.3616613e-07
4.208438e-07
-1.3131063e-07
-3.6556499e-06
-4.1638113e-07
-1.7502823e-07
-3.9809296e-06
4.1040418e-07
2.0081514e-05
-5.1697194e-06
-5.2572642e-06
-1.9209586e-05
-4.9826868e-06
-7.391063e-06
2.0474244e-05
5.8357126e-06
-5.0554107e-06
-1.7047822e-06
-5.5911201e-06
-5.293686e-06
-2.3565432e-06
6.6699997e-06
2.8333635e-06
-4.9236511e-06
-8.5817903e-07
-2.7842536e-06
-5.3474976e-06
-1.1722791e-06
3.1474376e-06
1.5620643e-06
-4.8325167e-06
-4.8093547e-07
-1.5525496e-06
-5.3259401e-06
-6.5577883e-07
1.6836317e-06
9.700259e-07
-4.772852e-06
-3.0012991e-07
-9.6801308e-07
-5.2798465e-06
-4.0745038e-07
1.0105801e-06
6.7676449e-07
-4.7336013e-06
-2.0890853e-07
-6.7430779e-07
-5.2269651e-06
-2.8202139e-07
6.8177889e-07
5.2993014e-07
-1.6249833e-07
-4.7072913e-06
-5.2505184e-07
-2.1782226e-07
-5.1708181e-06
5.165775e-07
2.5566935e-05
-6.5456381e-06
-6.3974974e-06
-2.4687533e-05
-6.2594809e-06
-9.0322063e-06
2.5794858e-05
7.4569331e-06
-6.4265471e-06
-2.0852343e-06
-7.1955732e-06
-6.7132589e-06
-2.9258075e-06
8.4799733e-06
3.6256352e-06
-6.2726656e-06
-1.0536014e-06
-3.5840943e-06
-6.8213144e-06
-1.46463e-06
4.026041e-06
1.9937494e-06
-6.164562e-06
-5.8963145e-07
-1.9931575e-06
-6.8165729e-06
-8.1641992e-07
2.1496484e-06
1.2311813e-06
-6.0939543e-06
-3.6605385e-07
-1.2358645e-06
-6.7713521e-06
-5.0344887e-07
1.2819593e-06
8.5219642e-07
-6.0485754e-06
-2.5263832e-07
-8.5384605e-07
-6.713129e-06
-3.4492181e-07
8.5687323e-07
6.6013143e-07
-1.9425996e-07
-6.0191773e-06
-6.5776715e-07
-2.630304e-07
-6.649224e-06
6.4143523e-07
3.2677917e-05
-8.3045655e-06
-7.6941864e-06
-3.1661357e-05
-7.9088768e-06
-1.0923408e-05
3.2793939e-05
9.5342113e-06
-8.1729989e-06
-2.5145864e-06
-9.2364267e-06
-8.5347388e-06
-3.5840945e-06
1.0818359e-05
4.6352287e-06
-7.9859373e-06
-1.2747393e-06
-4.6011528e-06
-8.7063103e-06
-1.8065148e-06
5.1486842e-06
2.5404576e-06
-7.8538604e-06
-7.1182622e-07
-2.5503405e-06
-8.7198751e-06
-1.0036826e-06
2.7412839e-06
1.5580458e-06
-7.7679901e-06
-4.3908392e-07
-1.5708854e-06
-8.6740882e-06
-6.1387799e-07
1.6226881e-06
1.0678302e-06
-7.7140979e-06
-2.9988018e-07
-1.0744814e-06
-8.6085748e-06
-4.156693e-07
1.0730632e-06
8.1618045e-07
-2.2726218e-07
-7.6805432e-06
-8.1673212e-07
-3.1215008e-07
-8.5352338e-06
7.9195941e-07
4.2411616e-05
-1.0607797e-05
-9.2239784e-06
-4.1218985e-05
-1.0072783e-05
-1.3161485e-05
4.2368105e-05
1.2332803e-05
-1.045423e-05
-3.0243241e-06
-1.1976634e-05
-1.0935749e-05
-4.3681059e-06
1.3979779e-05
5.985611e-06
-1.021927e-05
-1.5387097e-06
-5.9566003e-06
-1.1191395e-05
-2.2119406e-06
6.6466826e-06
3.2653075e-06
-1.0053822e-05
-8.5684894e-07
-3.2857329e-06
-1.1229309e-05
-1.224694e-06
3.5242327e-06
1.9866923e-06
-9.9483514e-06
-5.2443816e-07
-2.0068073e-06
-1.1183347e-05
-7.4269259e-07
2.0695461e-06
1.3449233e-06
-9.8838857e-06
-3.5362062e-07
-1.355649e-06
-1.1109863e-05
-4.9619426e-07
1.3519633e-06
1.010838e-06
-2.6315931e-07
-9.8455493e-06
-1.0132756e-06
-3.6580053e-07
-1.1026707e-05
9.8133371e-07
5.3710029e-05
-1.3299659e-05
-1.0325213e-05
-5.2857968e-05
-1.2461573e-05
-1.5134106e-05
5.2962178e-05
1.5651299e-05
-1.3166202e-05
-3.4153225e-06
-1.539376e-05
-1.3653013e-05
-5.0763205e-06
1.7550952e-05
7.597263e-06
-1.2894335e-05
-1.7456045e-06
-7.6622374e-06
-1.4040992e-05
-2.586422e-06
8.3597214e-06
4.1270791e-06
-1.2699258e-05
-9.6979283e-07
-4.2092109e-06
-1.412599e-05
-1.4272132e-06
4.4145971e-06
2.4923886e-06
-1.2579503e-05
-5.8860085e-07
-2.547983e-06
-1.4092123e-05
-8.5788236e-07
2.5737103e-06
1.6633619e-06
-1.2508554e-05
-3.9099278e-07
-1.6969377e-06
-1.4019246e-05
-5.645835e-07
1.6588756e-06
1.22517e-06
-2.8456622e-07
-1.2469454e-05
-1.2428646e-06
-4.0712212e-07
-1.3933808e-05
1.1810525e-06
6.880357e-05
-1.7126479e-05
-1.1542933e-05
-6.7559519e-05
-1.6243353e-05
-1.6073561e-05
6.6940022e-05
2.0587155e-05
-1.6841795e-05
-4.0700668e-06
-2.0217097e-05
-1.7551661e-05
-5.7536393e-06
2.2572779e-05
9.9683165e-06
-1.6430746e-05
-2.0856329e-06
-1.003934e-05
-1.7948933e-05
-2.9495779e-06
1.0728742e-05
5.3827542e-06
-1.6155353e-05
-1.1519981e-06
-5.4759412e-06
-1.8008379e-05
-1.6206564e-06
5.6356422e-06
3.2115262e-06
-1.5991517e-05
-6.899997e-07
-3.2739649e-06
-1.7945889e-05
-9.6321184e-07
3.2543638e-06
2.1055774e-06
-1.5897058e-05
-4.4942855e-07
-2.1415988e-06
-1.7849684e-05
-6.2297873e-07
2.0677672e-06
1.5147856e-06
-3.1909536e-07
-1.5845483e-05
-1.5318332e-06
-4.3927766e-07
-1.7745984e-05
1.4432384e-06
8.4173245e-05
-2.1329051e-05
-1.1856997e-05
-8.359696e-05
-2.068768e-05
-1.5933286e-05
8.1568235e-05
2.7029045e-05
-2.101897e-05
-4.5049758e-06
-2.6904221e-05
-2.2033166e-05
-6.1711176e-06
2.8792004e-05
1.3071663e-05
-2.0515887e-05
-2.3107666e-06
-1.3349616e-05
-2.2394307e-05
-3.1815259e-06
1.3664747e-05
7.0063973e-06
-2.0182817e-05
-1.2664661e-06
-7.2249987e-06
-2.2406446e-05
-1.7389892e-06
7.136868e-06
4.1186129e-06
-1.9988805e-05
-7.4640645e-07
-4.2562201e-06
-2.2310329e-05
-1.0200075e-06
4.079288e-06
2.6439755e-06
-1.9881815e-05
-4.7481254e-07
-2.7255807e-06
-2.2196237e-05
-6.4646596e-07
2.5533702e-06
1.8524051e-06
-3.2714128e-07
-1.982789e-05
-1.8982851e-06
-4.4398662e-07
-2.2086839e-05
1.7477132e-06
8.1576014e-05
-2.1028294e-05
-1.1587299e-05
-8.1469848e-05
-2.1115202e-05
-1.5248877e-05
7.9423821e-05
2.8268951e-05
-2.0784409e-05
-4.6697581e-06
-2.8348057e-05
-2.2154069e-05
-6.3203752e-06
2.9457074e-05
1.3666149e-05
-2.0316682e-05
-2.3907386e-06
-1.4053906e-05
-2.2363021e-05
-3.2667732e-06
1.3960342e-05
7.2696635e-06
-2.0004644e-05
-1.3001557e-06
-7.5480114e-06
-2.2306733e-05
-1.7756228e-06
7.2500097e-06
4.2105563e-06
-1.9826213e-05
-7.5503126e-07
-4.3803647e-06
-2.2190905e-05
-1.0289504e-06
4.1036672e-06
2.6445053e-06
-1.9732043e-05
-4.6988652e-07
-2.7436003e-06
-2.2082296e-05
-6.3995421e-07
2.5293844e-06
1.8006376e-06
-3.1444215e-07
-1.9688949e-05
-1.8564325e-06
-4.2844146e-07
-2.1992102e-05
1.6948947e-06
7.8420813e-05
-2.0786147e-05
-1.0777731e-05
-7.8738375e-05
-2.1573177e-05
-1.3993083e-05
7.6662537e-05
2.9271195e-05
-2.0616596e-05
-4.5927551e-06
-2.9517752e-05
-2.2348389e-05
-6.1974413e-06
2.9923472e-05
1.4175699e-05
-2.0196003e-05
-2.3509467e-06
-1.4636086e-05
-2.2427788e-05
-3.211683e-06
1.4200004e-05
7.4991124e-06
-1.9912648e-05
-1.2708406e-06
-7.8117815e-06
-2.2313956e-05
-1.7371123e-06
7.3467707e-06
4.288439e-06
-1.9753408e-05
-7.2872723e-07
-4.4739835e-06
-2.2182308e-05
-9.957523e-07
4.1235905e-06
2.6398061e-06
-1.9673207e-05
-4.446028e-07
-2.7452888e-06
-2.2079742e-05
-6.0859359e-07
2.5058803e-06
1.7480837e-06
-2.8931673e-07
-1.9640642e-05
-1.8057756e-06
-3.9749844e-07
-2.2008041e-05
1.6454378e-06
7.487857e-05
-2.0585161e-05
-9.517628e-06
-7.5553313e-05
-2.2041013e-05
-1.2202655e-05
7.3421296e-05
2.9912174e-05
-2.0539507e-05
-4.2734808e-06
-3.0277104e-05
-2.2639495e-05
-5.7412049e-06
3.005442e-05
1.4536571e-05
-2.0195366e-05
-2.2011227e-06
-1.5030538e-05
-2.2631871e-05
-2.9930259e-06
1.4310289e-05
7.663769e-06
-1.995484e-05
-1.1885032e-06
-7.9866316e-06
-2.2480799e-05
-1.6158402e-06
7.3914259e-06
4.3392016e-06
-1.9820146e-05
-6.7645205e-07
-4.5261725e-06
-2.2340763e-05
-9.1986814e-07
4.1232806e-06
2.6265155e-06
-1.975444e-05
-4.0704876e-07
-2.7297732e-06
-2.2245535e-05
-5.5522576e-07
2.477922e-06
1.6968188e-06
-2.5931022e-07
-1.9730202e-05
-1.7510654e-06
-3.558e-07
-2.2187166e-05
1.5967494e-06
7.1803707e-05
-2.0224421e-05
-8.2088458e-06
-7.2727812e-05
-2.2016913e-05
-1.0357453e-05
7.0383812e-05
2.9649147e-05
-2.0360254e-05
-3.6935186e-06
-3.0093279e-05
-2.262986e-05
-4.8632407e-06
2.9384132e-05
1.4466554e-05
-2.0143019e-05
-1.9138942e-06
-1.4971019e-05
-2.2646263e-05
-2.5453106e-06
1.403524e-05
7.6335024e-06
-1.9971052e-05
-1.0387209e-06
-7.9552499e-06
-2.2514788e-05
-1.3786005e-06
7.2647896e-06
4.3150832e-06
-1.9869442e-05
-5.9432996e-07
-4.4988174e-06
-2.2386913e-05
-7.8843644e-07
4.0557753e-06
2.6013186e-06
-1.9816811e-05
-3.5985281e-07
-2.7011437e-06
-2.229738e-05
-4.787974e-07
2.435359e-06
1.6686924e-06
-2.309716e-07
-1.979398e-05
-1.7198635e-06
-3.092354e-07
-2.2238182e-05
1.5629276e-06
6.9561421e-05
-2.0344352e-05
-6.8605677e-06
-7.0581422e-05
-2.2313244e-05
-8.4285004e-06
6.8019055e-05
2.8817361e-05
-2.0469683e-05
-3.0655606e-06
-2.9319991e-05
-2.2844417e-05
-3.9041606e-06
2.8389456e-05
1.4115264e-05
-2.0286004e-05
-1.5881632e-06
-1.4624678e-05
-2.2822475e-05
-2.0460477e-06
1.3594058e-05
7.4755712e-06
-2.0139678e-05
-8.6420899e-07
-7.7964076e-06
-2.2686965e-05
-1.1116037e-06
7.0730671e-06
4.245523e-06
-2.0054966e-05
-4.9664685e-07
-4.4279209e-06
-2.256523e-05
-6.3859125e-07
3.9739411e-06
2.5749803e-06
-2.0013533e-05
-3.02457e-07
-2.6738075e-06
-2.2483662e-05
-3.9009164e-07
2.4047101e-06
1.6645873e-06
-1.9555276e-07
-1.9998553e-05
-1.7149887e-06
-2.5383557e-07
-2.2430433e-05
1.5559565e-06
6.7530325e-05
-2.0571461e-05
-5.5614083e-06
-6.8600589e-05
-2.2715973e-05
-6.4388774e-06
6.5857454e-05
2.8097855e-05
-2.0668502e-05
-2.480306e-06
-2.858607e-05
-2.3186143e-05
-2.941287e-06
2.7605153e-05
1.3815419e-05
-2.0501196e-05
-1.2845878e-06
-1.4286305e-05
-2.3131536e-05
-1.5433e-06
1.3258064e-05
7.3439644e-06
-2.0371097e-05
-7.0084124e-07
-7.6374292e-06
-2.299539e-05
-8.4239435e-07
6.9386122e-06
4.1913916e-06
-2.0299186e-05
-4.0456024e-07
-4.3553929e-06
-2.288243e-05
-4.8653906e-07
3.9263762e-06
2.5572954e-06
-2.0266278e-05
-2.4782335e-07
-2.6448338e-06
-2.2809789e-05
-2.9905582e-07
2.3936221e-06
1.6660339e-06
-1.6139298e-07
-2.0257755e-05
-1.7087196e-06
-1.9600233e-07
-2.2763674e-05
1.562083e-06
6.6319277e-05
-2.0809194e-05
-4.2573473e-06
-6.7509132e-05
-2.3132836e-05
-4.6583169e-06
6.4756892e-05
2.7664684e-05
-2.0877994e-05
-1.9046896e-06
-2.8171503e-05
-2.3577548e-05
-2.1335977e-06
2.7301705e-05
1.3633867e-05
-2.0720871e-05
-9.8727718e-07
-1.4088306e-05
-2.3531354e-05
-1.1269769e-06
1.3171348e-05
7.2425376e-06
-2.0607333e-05
-5.3688789e-07
-7.5200269e-06
-2.3413143e-05
-6.1608889e-07
6.8980227e-06
4.1218018e-06
-2.0551453e-05
-3.070719e-07
-4.2751748e-06
-2.3322083e-05
-3.5325091e-07
3.897451e-06
2.5048599e-06
-2.0533489e-05
-1.854214e-07
-2.585224e-06
-2.3270291e-05
-2.1411288e-07
2.3681279e-06
1.6236294e-06
-1.1854147e-07
-2.0538058e-05
-1.6619154e-06
-1.3766708e-07
-2.3243404e-05
1.5384048e-06
5.2924288e-05
-1.6757522e-05
-3.234454e-06
-5.3877645e-05
-1.8664285e-05
-3.2650899e-06
5.1636591e-05
2.2094795e-05
-1.682231e-05
-1.4484585e-06
-2.2486237e-05
-1.9035154e-05
-1.5073708e-06
2.1839442e-05
1.0897718e-05
-1.6709858e-05
-7.5175293e-07
-1.1245699e-05
-1.9039257e-05
-8.0984275e-07
1.0584682e-05
5.7628735e-06
-1.6629297e-05
-4.0836261e-07
-5.9719551e-06
-1.8968049e-05
-4.449798e-07
5.5205594e-06
3.2486716e-06
-1.6590604e-05
-2.3186491e-07
-3.3625753e-06
-1.8908418e-05
-2.5415549e-07
3.0899419e-06
1.9467796e-06
-1.6578472e-05
-1.3833089e-07
-2.0059974e-06
-1.8874245e-05
-1.5240662e-07
1.8509032e-06
1.2394836e-06
-8.70076e-08
-1.6581953e-05
-1.2675389e-06
-9.6413421e-08
-1.8856857e-05
1.1808382e-06
4.2843089e-05
-1.3375683e-05
-2.5275269e-06
-4.3508054e-05
-1.4928298e-05
-2.2315501e-06
4.1871152e-05
1.7896037e-05
-1.3447039e-05
-1.1304014e-06
-1.8142741e-05
-1.5262893e-05
-1.0452291e-06
1.7768485e-05
8.8319387e-06
-1.3371672e-05
-5.8659855e-07
-9.0724579e-06
-1.5306109e-05
-5.8090143e-07
8.6462138e-06
4.6527217e-06
-1.3314978e-05
-3.1923534e-07
-4.7985442e-06
-1.5268887e-05
-3.2316971e-07
4.4936876e-06
2.6012507e-06
-1.3286658e-05
-1.8062456e-07
-2.6808067e-06
-1.523094e-05
-1.8473957e-07
2.4938895e-06
1.5403383e-06
-1.3277604e-05
-1.0694959e-07
-1.5807729e-06
-1.5208517e-05
-1.1018911e-07
1.4756958e-06
9.6552255e-07
-6.6507068e-08
-1.3279583e-05
-9.8404009e-07
-6.8990447e-08
-1.5197139e-05
9.2672328e-07
3.5030597e-05
-1.0697499e-05
-1.9780424e-06
-3.5526672e-05
-1.1939974e-05
-1.4217169e-06
3.4289211e-05
1.4641142e-05
-1.0785555e-05
-8.7404971e-07
-1.4809441e-05
-1.2255059e-05
-6.8669303e-07
1.4597693e-05
7.228956e-06
-1.0742394e-05
-4.5149109e-07
-7.4072258e-06
-1.2317672e-05
-4.0529912e-07
7.1159654e-06
3.7977033e-06
-1.0705361e-05
-2.4698477e-07
-3.9069878e-06
-1.2301332e-05
-2.3020901e-07
3.6884004e-06
2.1103118e-06
-1.0686443e-05
-1.3974969e-07
-2.1701023e-06
-1.2277029e-05
-1.3268446e-07
2.033954e-06
1.2379851e-06
-1.068063e-05
-8.2443013e-08
-1.2683048e-06
-1.2261731e-05
-7.9245804e-08
1.1917421e-06
7.6652383e-07
-5.0907173e-08
-1.0682497e-05
-7.8025305e-07
-4.9448951e-08
-1.2253721e-05
7.3897454e-07
2.8341755e-05
-8.4054689e-06
-1.6087668e-06
-2.8635392e-05
-9.4140504e-06
-8.3920243e-07
2.7872658e-05
1.1873573e-05
-8.5085289e-06
-7.0504432e-07
-1.1939521e-05
-9.7201121e-06
-4.3690256e-07
1.1929836e-05
5.8701827e-06
-8.4930077e-06
-3.6289597e-07
-5.9743e-06
-9.7996739e-06
-2.896755e-07
5.8341205e-06
3.077826e-06
-8.4727463e-06
-1.9998385e-07
-3.1450903e-06
-9.8007778e-06
-1.6927957e-07
3.0179985e-06
1.7027865e-06
-8.4624155e-06
-1.1350301e-07
-1.7393626e-06
-9.7884827e-06
-9.9402311e-08
1.6572101e-06
9.9192737e-07
-8.4601149e-06
-6.6963056e-08
-1.0097089e-06
-9.7798585e-06
-5.9954841e-08
9.64011e-07
6.0826429e-07
-4.1236768e-08
-8.4626141e-06
-6.154339e-07
-3.7575899e-08
-9.7753521e-06
5.918858e-07
2.3469361e-05
-6.7516102e-06
-1.3311071e-06
-2.3691542e-05
-7.5647787e-06
-4.6838e-07
2.3199127e-05
9.8166475e-06
-6.846958e-06
-5.6996439e-07
-9.8563842e-06
-7.840813e-06
-2.6244376e-07
9.9182287e-06
4.8532347e-06
-6.8426202e-06
-2.924984e-07
-4.9279726e-06
-7.9169025e-06
-2.0400016e-07
4.8436455e-06
2.5384769e-06
-6.8303326e-06
-1.615564e-07
-2.5891926e-06
-7.9216405e-06
-1.2582298e-07
2.4997573e-06
1.398408e-06
-6.8235382e-06
-9.1964096e-08
-1.4267422e-06
-7.9134985e-06
-7.6020009e-08
1.3668824e-06
8.0992798e-07
-6.8223048e-06
-5.4415706e-08
-8.2370835e-07
-7.9072729e-06
-4.6729959e-08
7.9047713e-07
4.9275716e-07
-3.3549496e-08
-6.8244286e-06
-4.9832109e-07
-2.9662099e-08
-7.9039234e-06
4.814931e-07
1.9334364e-05
-5.4084348e-06
-1.0601844e-06
-1.9565852e-05
-6.0469847e-06
-2.0239368e-07
1.9152823e-05
8.0734995e-06
-5.4950712e-06
-4.2933901e-07
-8.1274883e-06
-6.285577e-06
-1.1846445e-07
8.1681084e-06
3.990363e-06
-5.4971218e-06
-2.195614e-07
-4.0612526e-06
-6.3501787e-06
-1.3257817e-07
3.9835395e-06
2.0828432e-06
-5.4900548e-06
-1.206969e-07
-2.1307702e-06
-6.3546137e-06
-8.9447215e-08
2.0509011e-06
1.1435977e-06
-5.4859831e-06
-6.8772188e-08
-1.1708618e-06
-6.3484678e-06
-5.6180419e-08
1.1176124e-06
6.5921948e-07
-5.4855798e-06
-4.0969958e-08
-6.7306821e-07
-6.3436336e-06
-3.5563313e-08
6.4321835e-07
3.9853629e-07
-2.54502e-08
-5.4874682e-06
-4.0474741e-07
-2.3106705e-08
-6.3410041e-06
3.8935119e-07
1.5561948e-05
-4.2437085e-06
-8.6508778e-07
-1.5712632e-05
-4.7734393e-06
-6.1903597e-08
1.5523805e-05
6.5176608e-06
-4.3272592e-06
-3.3439615e-07
-6.529058e-06
-4.9922087e-06
-3.6384342e-08
6.6543515e-06
3.2253257e-06
-4.3372012e-06
-1.7222941e-07
-3.2627172e-06
-5.0526413e-06
-9.4571077e-08
3.2477485e-06
1.6825253e-06
-4.3362572e-06
-9.3786823e-08
-1.71038e-06
-5.0600879e-06
-7.0768502e-08
1.6712926e-06
9.2205517e-07
-4.3358456e-06
-5.325945e-08
-9.3797946e-07
-5.0567196e-06
-4.6469254e-08
9.0897511e-07
5.2960937e-07
-4.3370546e-06
-3.193887e-08
-5.3743141e-07
-5.0538994e-06
-3.0058404e-08
5.2128459e-07
3.1866553e-07
-2.0085886e-08
-4.3394219e-06
-3.2166213e-07
-1.9897181e-08
-5.0525021e-06
3.1405842e-07