/*--------------------------------*- C++ -*----------------------------------*\
| =========                 |                                                 |
| \\      /  F ield         | OpenFOAM: The Open Source CFD Toolbox           |
|  \\    /   O peration     | Version:  2206                                  |
|   \\  /    A nd           | Website:  www.openfoam.com                      |
|    \\/     M anipulation  |                                                 |
\*---------------------------------------------------------------------------*/
FoamFile
{
    version     2.0;
    format      ascii;
    arch        "LSB;label=32;scalar=64";
    class       volScalarField;
    location    "200";
    object      rho;
}
// * * * * * * * * * * * * * * * * * * * * * * * * * * * * * * * * * * * * * //

dimensions      [1 -3 0 0 0 0 0];

internalField   nonuniform List<scalar> 
50904
(
1.2204326
1.2152883
1.2200392
1.2148972
1.2209519
1.2161843
1.2206137
1.2159247
1.2215542
1.2170821
1.2212835
1.2168944
1.2221455
1.2178348
1.2219111
1.2176139
1.2228253
1.2185572
1.2225391
1.2182007
1.2234379
1.2191441
1.2229853
1.2185954
1.2237173
1.219453
1.2231632
1.2188054
1.2238605
1.2196951
1.2232782
1.2190159
1.2240344
1.2200176
1.2234308
1.2193095
1.2242752
1.2204544
1.2236594
1.2197281
1.2246055
1.2210333
1.2239945
1.2203129
1.2250521
1.2217799
1.2244498
1.2210787
1.2256459
1.2227254
1.2250759
1.2220647
1.2263943
1.2238689
1.2258717
1.2232642
1.2273219
1.225213
1.2268622
1.2246899
1.2282672
1.2265237
1.2278667
1.2260823
1.2291031
1.2276499
1.2287549
1.2272809
1.22985
1.2286235
1.229541
1.2283138
1.2304788
1.2294277
1.2301918
1.2291613
1.2310094
1.230089
1.2307443
1.2298651
1.2314401
1.2306083
1.2311898
1.2304163
1.231795
1.2310043
1.2315469
1.2308265
1.2320523
1.2312507
1.2317833
1.2310559
1.2322252
1.2313797
1.2319261
1.2311548
1.2323478
1.2314517
1.2320199
1.2311792
1.232438
1.2314867
1.2320858
1.2311664
1.2325086
1.2314995
1.2321365
1.2311309
1.2325669
1.2315021
1.2321786
1.2310826
1.2326137
1.2314804
1.2322153
1.2310458
1.2325958
1.2314131
1.2321784
1.230927
1.2323282
1.23105
1.2318355
1.2305397
1.2317532
1.2304602
1.2312488
1.2299537
1.2313284
1.2301026
1.2308672
1.2296314
1.2311301
1.2299232
1.2307031
1.2294661
1.2310117
1.2298118
1.2305959
1.229338
1.2309646
1.2297622
1.2305421
1.229267
1.2204988
1.215664
1.2228357
1.2193255
1.2238535
1.2212605
1.2244102
1.2224214
1.2247324
1.2231243
1.2249322
1.2235769
1.2250643
1.2239064
1.2210614
1.2166665
1.2233297
1.2201175
1.224317
1.2218735
1.2248423
1.2229439
1.2251358
1.2235886
1.2253147
1.2240048
1.2254316
1.2243078
1.2216792
1.2175341
1.2237874
1.2206834
1.2246751
1.2222158
1.2251585
1.2232199
1.2254451
1.2238569
1.2256319
1.2242962
1.2257622
1.2246225
1.2221639
1.2180519
1.2240119
1.2208632
1.2247999
1.2222362
1.225246
1.2231908
1.2255248
1.22381
1.2257206
1.2242526
1.2258676
1.2245931
1.2225758
1.2184119
1.2242043
1.2209887
1.2249457
1.2223241
1.2253872
1.2232925
1.225678
1.2239292
1.2258935
1.2243839
1.2260638
1.2247371
1.2228481
1.2186582
1.224384
1.2211009
1.2251282
1.2224066
1.225575
1.2233651
1.2258735
1.2240058
1.2260978
1.2244647
1.2262775
1.2248231
1.2229602
1.2188037
1.2244635
1.221134
1.2252112
1.2224081
1.2256603
1.2233607
1.2259623
1.2240062
1.2261898
1.2244686
1.2263697
1.2248296
1.223044
1.218965
1.2245039
1.2211455
1.2252394
1.222374
1.2256826
1.2233131
1.2259823
1.2239513
1.2262071
1.2244124
1.2263838
1.224774
1.2231659
1.2191981
1.2245771
1.221209
1.2252998
1.2224013
1.2257379
1.2233268
1.226036
1.2239502
1.2262579
1.224404
1.2264297
1.2247648
1.2233676
1.219559
1.2247202
1.2213764
1.2254244
1.2225245
1.2258564
1.2234165
1.2261496
1.2240221
1.2263645
1.2244676
1.2265337
1.2248254
1.2236913
1.220106
1.2249876
1.2217383
1.2256715
1.2228242
1.2260934
1.2236787
1.2263788
1.2242575
1.2265851
1.2246955
1.2267508
1.225044
1.2241456
1.2208334
1.2253774
1.2222602
1.2260367
1.2232897
1.2264426
1.2240911
1.2267173
1.2246543
1.2269205
1.2250862
1.22708
1.2254156
1.2248044
1.2218358
1.2259802
1.2231238
1.2266151
1.224045
1.2270031
1.2247949
1.2272617
1.2253512
1.2274538
1.2257528
1.2276022
1.226057
1.225651
1.2230568
1.2267668
1.2242031
1.2273774
1.2250563
1.2277446
1.2257812
1.2279875
1.2263054
1.2281667
1.2266723
1.2283043
1.2269478
1.2267044
1.2245189
1.2277466
1.225536
1.2283334
1.226335
1.2286787
1.2270259
1.2289048
1.2275023
1.2290684
1.2278327
1.2291913
1.2280751
1.2277865
1.2259729
1.2287606
1.2269004
1.2293147
1.2276527
1.2296388
1.2282836
1.2298462
1.2287083
1.2299927
1.2289984
1.2300996
1.2292047
1.2287439
1.2272276
1.2296499
1.2280872
1.2301673
1.2287934
1.230469
1.2293682
1.230658
1.2297463
1.2307887
1.2300004
1.2308817
1.2301762
1.2295808
1.2282965
1.2304148
1.2291057
1.2308949
1.2297691
1.2311748
1.2302954
1.2313473
1.230633
1.2314642
1.2308567
1.2315461
1.2310087
1.2302984
1.2292006
1.2310555
1.2299606
1.2314884
1.2305738
1.2317418
1.2310484
1.2318963
1.2313473
1.2319998
1.2315437
1.2320738
1.2316789
1.2309041
1.2299581
1.2315909
1.2306675
1.2319739
1.2312321
1.2322012
1.2316552
1.2323401
1.2319224
1.2324333
1.2320983
1.2325
1.2322201
1.2313856
1.2305522
1.2320039
1.2312008
1.2323434
1.2317175
1.2325468
1.2320971
1.2326713
1.2323376
1.2327554
1.2324964
1.2328159
1.2326083
1.2317556
1.2309884
1.2323168
1.2315839
1.2326194
1.2320543
1.2328011
1.2323997
1.232913
1.2326176
1.2329897
1.232763
1.2330441
1.2328636
1.2319885
1.2312302
1.2325072
1.231786
1.2327813
1.232217
1.2329443
1.2325371
1.2330449
1.2327384
1.2331151
1.2328718
1.2331657
1.2329637
1.2321163
1.23133
1.2326061
1.2318563
1.2328617
1.2322605
1.2330139
1.2325628
1.2331077
1.2327515
1.2331734
1.2328779
1.2332213
1.2329643
1.2321881
1.2313638
1.2326606
1.231869
1.2329082
1.2322565
1.2330552
1.2325471
1.2331456
1.2327267
1.2332089
1.2328479
1.2332557
1.2329319
1.2322281
1.2313601
1.2326901
1.2318521
1.232934
1.2322326
1.2330791
1.2325155
1.2331681
1.2326899
1.2332303
1.2328076
1.2332769
1.2328902
1.2322586
1.2313268
1.2327122
1.2318147
1.2329523
1.2322025
1.2330972
1.2324804
1.2331856
1.2326508
1.2332475
1.2327669
1.233294
1.2328491
1.2322843
1.2312865
1.2327283
1.2317754
1.2329654
1.2321793
1.2331118
1.2324562
1.2332004
1.2326242
1.233262
1.23274
1.2333082
1.2328217
1.2323013
1.2312463
1.2327384
1.2317178
1.2329696
1.2321297
1.2331141
1.2324124
1.2332013
1.2325893
1.233262
1.2327069
1.2333077
1.2327908
1.232258
1.231153
1.2327067
1.2316224
1.2329305
1.2320339
1.233071
1.2323175
1.2331538
1.2324881
1.233211
1.2325996
1.2332545
1.2326773
1.2319801
1.230852
1.2325032
1.2314544
1.2327493
1.231865
1.232881
1.232131
1.2329549
1.2322782
1.2330014
1.2323702
1.2330346
1.2324321
1.2314405
1.2303681
1.2321223
1.2312073
1.232469
1.2317462
1.232643
1.2320511
1.2327269
1.2322095
1.232768
1.2322951
1.2327877
1.23234
1.2310635
1.2300384
1.2318094
1.2309881
1.2322832
1.2316675
1.2325388
1.232067
1.2326642
1.2322714
1.232718
1.2323693
1.2327319
1.2324095
1.2308869
1.229837
1.231631
1.2308059
1.2321695
1.2315825
1.2324831
1.232055
1.2326315
1.2322927
1.2326892
1.2324002
1.2326974
1.2324356
1.2307826
1.2296798
1.2315242
1.2306493
1.2320545
1.2314321
1.2323861
1.2319258
1.2325514
1.2321762
1.232609
1.2322829
1.2326094
1.2323125
1.2307287
1.2295813
1.2314869
1.2305602
1.2320025
1.2313125
1.2322792
1.2317376
1.2324186
1.2319586
1.2324858
1.2320733
1.2325029
1.2321189
1.225169
1.2241845
1.2252563
1.2244179
1.225314
1.2245907
1.2253917
1.2247983
1.2255652
1.2251933
1.2260401
1.2261835
1.2255238
1.2245676
1.2255977
1.2247765
1.2256472
1.2249359
1.2257161
1.225131
1.2258844
1.2255275
1.2263569
1.2265247
1.2258655
1.2249039
1.2259555
1.2251438
1.2260256
1.2253408
1.2261062
1.2255635
1.2262641
1.2259471
1.2266917
1.2268878
1.2259938
1.2248958
1.2261018
1.2251515
1.2261958
1.2253774
1.2263039
1.2256439
1.2264892
1.2261
1.2269265
1.2271099
1.2262156
1.2250566
1.2263493
1.2253374
1.2264718
1.2255834
1.2266055
1.2258691
1.2268082
1.226345
1.2272523
1.2273912
1.2264388
1.2251524
1.2265823
1.225441
1.2267179
1.2256963
1.2268668
1.2259949
1.2270868
1.2264899
1.2275524
1.2275776
1.2265293
1.2251602
1.2266738
1.2254501
1.2268095
1.2257059
1.2269595
1.2260027
1.2271813
1.2264947
1.227644
1.2275886
1.2265413
1.2251026
1.226684
1.2253921
1.2268187
1.2256496
1.2269675
1.225946
1.2271872
1.2264363
1.227646
1.2275378
1.2265859
1.2250891
1.2267256
1.2253767
1.2268589
1.2256339
1.2270056
1.2259286
1.2272206
1.2264132
1.2276711
1.2275084
1.2266864
1.2251416
1.2268236
1.2254247
1.2269543
1.2256798
1.227098
1.2259723
1.2273067
1.2264479
1.2277458
1.2275276
1.2268984
1.2253487
1.2270324
1.2256222
1.2271593
1.2258704
1.2272968
1.2261541
1.2275011
1.22661
1.227917
1.2276442
1.2272215
1.2257062
1.2273484
1.2259659
1.2274691
1.2262009
1.2276031
1.2264705
1.2277963
1.2269038
1.22819
1.2278748
1.2277337
1.226323
1.2278526
1.2265606
1.2279667
1.2267762
1.2280913
1.2270201
1.2282715
1.2274087
1.2286313
1.2282931
1.2284231
1.2271844
1.2285314
1.2273972
1.2286351
1.227591
1.2287494
1.2278066
1.2289141
1.228146
1.2292376
1.2289135
1.2292955
1.2282789
1.2293903
1.228463
1.2294819
1.2286309
1.2295828
1.2288158
1.2297295
1.2291034
1.2300115
1.2297367
1.2301898
1.2293763
1.2302715
1.2295307
1.2303508
1.2296719
1.2304387
1.2298281
1.2305669
1.2300696
1.2308085
1.230589
1.2309598
1.2303212
1.2310306
1.2304512
1.2310995
1.2305707
1.2311763
1.2307035
1.2312889
1.23091
1.2314973
1.2313459
1.2316145
1.2311325
1.2316766
1.2312438
1.2317374
1.2313468
1.2318053
1.2314616
1.2319053
1.231641
1.2320879
1.2320137
1.232134
1.2317869
1.2321895
1.2318837
1.2322436
1.2319737
1.2323045
1.2320744
1.2323939
1.2322314
1.2325564
1.2325565
1.2325544
1.2323167
1.2326042
1.2324027
1.2326531
1.2324828
1.2327082
1.2325728
1.2327902
1.2327139
1.2329401
1.2330072
1.2328652
1.2326967
1.2329102
1.2327746
1.2329549
1.2328473
1.2330055
1.2329295
1.233083
1.2330584
1.2332269
1.2333261
1.2330894
1.2329435
1.233131
1.2330152
1.2331733
1.2330827
1.2332223
1.2331588
1.2332975
1.2332781
1.2334308
1.2335243
1.2332081
1.2330371
1.2332475
1.2331035
1.2332882
1.2331679
1.2333353
1.2332404
1.2334084
1.2333537
1.2335359
1.2335815
1.233262
1.2330338
1.2332999
1.2330969
1.2333396
1.2331591
1.2333856
1.2332292
1.2334567
1.2333382
1.2335781
1.2335518
1.2332955
1.2329991
1.2333327
1.2330602
1.2333718
1.2331214
1.2334167
1.2331905
1.2334851
1.2332972
1.2336005
1.2335008
1.2333164
1.2329556
1.2333536
1.2330153
1.2333926
1.2330755
1.2334372
1.2331436
1.2335041
1.2332482
1.2336119
1.2334426
1.2333332
1.2329137
1.2333704
1.2329727
1.2334095
1.2330324
1.2334542
1.2331001
1.2335206
1.2332031
1.2336229
1.2333906
1.2333474
1.2328856
1.2333844
1.2329443
1.2334235
1.2330035
1.2334682
1.2330708
1.2335333
1.2331723
1.233633
1.2333542
1.2333467
1.2328553
1.2333839
1.2329147
1.2334232
1.2329743
1.2334684
1.2330418
1.2335337
1.2331425
1.2336296
1.2333185
1.233291
1.2327367
1.2333258
1.2327916
1.2333628
1.2328468
1.2334052
1.2329093
1.2334654
1.2330029
1.2335549
1.2331652
1.2330602
1.2324753
1.2330844
1.2325144
1.2331099
1.2325533
1.2331391
1.2325983
1.2331834
1.2326744
1.2332562
1.23282
1.2327935
1.2323607
1.2327975
1.2323751
1.2328003
1.2323879
1.2328067
1.2324067
1.2328316
1.2324627
1.2328951
1.2326021
1.2327214
1.2324141
1.232707
1.2324113
1.2326893
1.2324041
1.2326777
1.2324038
1.232695
1.232447
1.2327679
1.2325867
1.2326761
1.2324287
1.2326523
1.2324178
1.2326243
1.2324003
1.2326062
1.2323927
1.232626
1.2324359
1.2327193
1.2325927
1.2325801
1.2322995
1.232551
1.2322861
1.232518
1.2322655
1.2324979
1.2322593
1.2325176
1.2323064
1.2326145
1.2324742
1.2324892
1.2321258
1.2324742
1.2321294
1.2324529
1.2321203
1.2324429
1.2321253
1.2324691
1.2321794
1.2325553
1.2323345
1.2266553
1.2272529
1.2270227
1.2277061
1.227132
1.2278321
1.2271626
1.2278657
1.2271719
1.2278728
1.2271872
1.2278806
1.2269709
1.2275567
1.2273
1.2279717
1.2273824
1.2280747
1.2273992
1.2281018
1.2274002
1.2281056
1.227407
1.2281142
1.2272487
1.2278753
1.2275546
1.2282892
1.2276515
1.2284094
1.2276901
1.2284597
1.2277076
1.2284895
1.2277253
1.2285175
1.2274802
1.2281352
1.2277951
1.2285817
1.2279118
1.2287354
1.2279748
1.2288135
1.2280227
1.2288719
1.2280732
1.228936
1.2278224
1.2284806
1.2281578
1.2289922
1.2283003
1.2291802
1.2283879
1.2292837
1.2284601
1.229364
1.2285382
1.2294499
1.2281319
1.2287149
1.2284752
1.229267
1.2286295
1.2294792
1.2287296
1.2296018
1.2288152
1.2297015
1.2289082
1.2298092
1.228231
1.2287752
1.2285825
1.2293738
1.2287403
1.2296069
1.228844
1.2297419
1.2289335
1.2298523
1.2290308
1.2299726
1.228233
1.2287652
1.2285931
1.2294067
1.2287551
1.2296569
1.2288617
1.2298022
1.2289532
1.2299213
1.2290533
1.2300515
1.2282543
1.2287669
1.2286206
1.2294459
1.2287861
1.2297113
1.2288948
1.2298663
1.2289881
1.2299935
1.2290903
1.2301333
1.2283204
1.2288007
1.2286897
1.2295068
1.2288574
1.2297844
1.2289673
1.2299478
1.2290618
1.2300824
1.2291653
1.2302311
1.2284689
1.228895
1.2288328
1.2296063
1.2289986
1.2298894
1.2291079
1.2300581
1.2292022
1.2301974
1.2293051
1.2303514
1.2287126
1.22907
1.2290634
1.2297655
1.2292248
1.2300465
1.2293318
1.2302161
1.2294241
1.2303565
1.2295247
1.2305117
1.2291082
1.2293823
1.2294328
1.2300319
1.229584
1.2302986
1.2296853
1.230462
1.2297733
1.2305977
1.2298688
1.2307469
1.2296592
1.2298623
1.2299488
1.2304404
1.2300864
1.2306847
1.2301797
1.2308356
1.230261
1.230961
1.2303486
1.2310983
1.2303698
1.2305303
1.2306195
1.2310208
1.2307399
1.2312325
1.2308219
1.2313652
1.2308934
1.2314767
1.2309696
1.2315991
1.2311094
1.2312406
1.2313202
1.2316508
1.2314235
1.2318309
1.2314942
1.2319445
1.2315561
1.2320403
1.2316222
1.2321463
1.2317542
1.2318895
1.2319341
1.2322365
1.2320234
1.2323908
1.2320842
1.2324883
1.2321377
1.2325707
1.2321957
1.2326628
1.2323143
1.2324808
1.2324727
1.2327826
1.2325517
1.2329172
1.2326054
1.2330018
1.2326527
1.2330732
1.2327047
1.2331537
1.2327675
1.2329801
1.2329127
1.233253
1.2329832
1.2333689
1.2330308
1.2334419
1.233072
1.2335031
1.2331171
1.2335724
1.2331419
1.2334013
1.2332821
1.2336595
1.233345
1.2337603
1.2333876
1.2338238
1.2334248
1.2338776
1.2334665
1.2339405
1.2334196
1.233694
1.2335567
1.2339448
1.2336138
1.234034
1.2336528
1.2340906
1.2336874
1.2341392
1.2337265
1.2341971
1.2336133
1.2338686
1.2337468
1.2341089
1.2338009
1.2341922
1.2338382
1.2342459
1.2338718
1.2342924
1.2339099
1.2343484
1.233707
1.2339007
1.2338334
1.234129
1.2338868
1.2342113
1.2339244
1.2342646
1.233958
1.2343104
1.2339949
1.2343639
1.2337385
1.2338537
1.2338572
1.2340696
1.2339098
1.2341504
1.2339471
1.2342032
1.2339804
1.2342489
1.2340161
1.2343011
1.2337498
1.2337886
1.2338621
1.2339957
1.2339137
1.2340752
1.2339506
1.2341278
1.2339833
1.2341734
1.2340182
1.2342248
1.2337522
1.2337193
1.2338594
1.2339166
1.2339101
1.2339942
1.2339467
1.2340461
1.2339794
1.2340911
1.2340138
1.2341415
1.2337564
1.2336571
1.2338589
1.2338487
1.2339086
1.2339256
1.2339448
1.2339773
1.2339773
1.2340226
1.2340115
1.2340729
1.2337604
1.2336106
1.2338584
1.2337976
1.2339068
1.2338743
1.2339425
1.2339265
1.2339749
1.2339728
1.2340088
1.2340237
1.2337548
1.2335654
1.2338514
1.2337456
1.2338998
1.2338205
1.2339356
1.2338722
1.2339682
1.2339182
1.2340018
1.2339679
1.2336752
1.2333922
1.2337683
1.2335533
1.2338143
1.2336179
1.2338478
1.2336629
1.233878
1.2337024
1.2339084
1.2337442
1.2333563
1.2330314
1.2334335
1.2331813
1.2334667
1.2332326
1.2334892
1.2332632
1.233508
1.2332865
1.2335257
1.2333097
1.2329948
1.2328197
1.2330728
1.2329753
1.2330931
1.233013
1.2330986
1.2330253
1.2330978
1.2330276
1.233094
1.2330269
1.2328867
1.2328127
1.2329766
1.2329744
1.2329866
1.233001
1.2329759
1.2329987
1.232956
1.2329839
1.2329314
1.2329645
1.2328742
1.2328448
1.2329824
1.2330157
1.2329821
1.2330306
1.2329584
1.2330164
1.232925
1.2329905
1.2328876
1.2329612
1.232791
1.2327588
1.232938
1.2329702
1.2329467
1.2329923
1.2329211
1.2329763
1.2328844
1.2329487
1.2328453
1.2329205
1.232679
1.2325724
1.2328018
1.2327746
1.2328278
1.2328241
1.2328205
1.2328283
1.2327976
1.2328164
1.2327714
1.2328046
1.2272188
1.2278999
1.2272484
1.2279059
1.2272849
1.2279043
1.2273433
1.2278963
1.2274432
1.2278695
1.227597
1.2277395
1.2276326
1.227018
1.2274303
1.2281329
1.2274533
1.2281403
1.2274833
1.2281403
1.2275362
1.2281373
1.2276343
1.2281283
1.2277927
1.2280399
1.2278424
1.2273797
1.2277589
1.2285553
1.2277931
1.2285843
1.2278326
1.2286033
1.2278937
1.2286142
1.2279979
1.2286189
1.2281625
1.2285538
1.228216
1.2279108
1.2281286
1.229004
1.2281852
1.2290649
1.2282474
1.2291179
1.2283316
1.2291609
1.228459
1.2291956
1.2286451
1.2291648
1.2287135
1.2285442
1.2286197
1.2295394
1.2286978
1.2296223
1.2287786
1.2296988
1.2288813
1.2297685
1.2290287
1.2298368
1.2292397
1.2298485
1.2293396
1.2292538
1.2290037
1.2299183
1.2291003
1.23002
1.2291986
1.230118
1.2293174
1.2302158
1.2294876
1.2303165
1.2297305
1.2303728
1.2298759
1.2298293
1.2291298
1.2300925
1.2292314
1.2302015
1.2293394
1.2303102
1.2294674
1.2304269
1.2296519
1.2305564
1.2299263
1.2306502
1.2301146
1.230158
1.2291547
1.2301817
1.2292578
1.2303014
1.2293711
1.2304218
1.22951
1.2305554
1.2297072
1.2307138
1.2300056
1.2308455
1.2302335
1.230417
1.2291942
1.2302737
1.2293004
1.2304047
1.2294177
1.2305393
1.229565
1.2306922
1.2297781
1.2308804
1.2301028
1.2310664
1.2303803
1.2307221
1.2292714
1.2303814
1.2293803
1.2305241
1.2295026
1.2306743
1.229659
1.2308498
1.2298887
1.2310732
1.230245
1.2313201
1.2305726
1.2310713
1.2294115
1.2305088
1.229522
1.2306613
1.2296482
1.230826
1.2298125
1.2310243
1.2300571
1.2312858
1.2304431
1.2315956
1.2308219
1.2314565
1.22963
1.2306725
1.2297414
1.2308322
1.2298706
1.2310101
1.2300428
1.2312313
1.2303023
1.2315303
1.230716
1.2319024
1.2311381
1.231873
1.2299696
1.230904
1.2300791
1.2310658
1.2302089
1.2312522
1.230385
1.2314905
1.2306523
1.2318216
1.2310807
1.2322481
1.2315276
1.2323197
1.2304416
1.2312458
1.2305456
1.231404
1.2306726
1.2315929
1.2308487
1.231843
1.2311195
1.2321982
1.2315531
1.2326621
1.2319956
1.2328015
1.231051
1.2317322
1.2311456
1.2318812
1.2312656
1.2320657
1.2314372
1.2323195
1.2317052
1.2326857
1.2321299
1.2331618
1.2325388
1.2333293
1.231692
1.2322625
1.231776
1.2323977
1.231886
1.2325719
1.2320485
1.2328208
1.2323047
1.233186
1.232706
1.2336586
1.2330681
1.2338324
1.2322557
1.2327627
1.23233
1.2328823
1.2324296
1.2330423
1.2325806
1.2332793
1.2328206
1.2336331
1.2331941
1.2340921
1.2335165
1.2342695
1.2327571
1.23324
1.2328226
1.233345
1.2329121
1.2334899
1.233051
1.2337108
1.2332739
1.2340463
1.2336198
1.2344865
1.2339126
1.2346711
1.2331659
1.2336507
1.2332242
1.2337438
1.233304
1.2338728
1.2334273
1.23407
1.2336263
1.2343746
1.2339392
1.2347917
1.2342294
1.2350128
1.2335112
1.2340117
1.2335641
1.2340952
1.2336347
1.2342086
1.233742
1.2343796
1.2339147
1.2346472
1.2341927
1.2350363
1.2344919
1.2353044
1.2337684
1.2342628
1.2338169
1.2343382
1.2338797
1.2344379
1.2339722
1.2345859
1.2341203
1.2348193
1.2343666
1.2351792
1.2346763
1.235499
1.2339476
1.2344082
1.2339915
1.2344755
1.234048
1.2345641
1.234132
1.2346973
1.234266
1.2349107
1.2344926
1.2352517
1.2348044
1.235605
1.2340314
1.2344202
1.2340727
1.2344817
1.234127
1.2345642
1.2342098
1.234692
1.2343425
1.2348994
1.2345659
1.2352383
1.234878
1.2356116
1.2340514
1.234355
1.2340913
1.2344142
1.2341445
1.2344944
1.2342277
1.234622
1.2343621
1.2348301
1.2345892
1.2351727
1.2349046
1.2355593
1.2340522
1.2342774
1.2340915
1.2343362
1.2341445
1.2344163
1.234229
1.2345457
1.2343668
1.2347582
1.2346007
1.2351089
1.2349238
1.2355053
1.2340471
1.2341931
1.2340867
1.234252
1.2341403
1.2343327
1.2342266
1.2344641
1.2343682
1.2346809
1.2346094
1.2350389
1.2349371
1.2354374
1.2340445
1.2341241
1.2340846
1.2341843
1.2341395
1.2342674
1.2342281
1.2344044
1.2343737
1.2346309
1.2346212
1.2350016
1.2349509
1.2353993
1.2340416
1.2340749
1.2340821
1.2341373
1.2341382
1.234224
1.2342288
1.2343662
1.2343777
1.2346004
1.2346307
1.2349822
1.2349638
1.2353771
1.2340344
1.2340182
1.2340751
1.2340801
1.234131
1.2341671
1.2342215
1.2343113
1.2343714
1.2345534
1.2346246
1.2349485
1.2349546
1.2353454
1.2339384
1.2337876
1.2339763
1.2338423
1.2340284
1.2339223
1.2341134
1.2340597
1.234256
1.234295
1.2345016
1.2346837
1.2348196
1.235066
1.2335451
1.2333381
1.2335702
1.2333763
1.2336099
1.2334431
1.2336825
1.2335696
1.233813
1.2337957
1.2340443
1.2341714
1.2343578
1.2345232
1.2330952
1.2330361
1.2331009
1.2330544
1.2331268
1.2331081
1.2331909
1.2332283
1.2333185
1.2334537
1.2335514
1.2338306
1.2338603
1.2341654
1.2329153
1.232959
1.2329031
1.2329615
1.2329186
1.2330042
1.2329781
1.2331208
1.2331085
1.2333489
1.2333506
1.2337313
1.2336702
1.2340605
1.2328615
1.2329486
1.2328393
1.2329443
1.2328499
1.2329867
1.232908
1.2331058
1.2330425
1.2333382
1.2332922
1.2337228
1.2336181
1.2340447
1.2328187
1.2329111
1.2327955
1.2329099
1.2328091
1.2329609
1.2328729
1.233092
1.2330171
1.2333409
1.2332784
1.2337406
1.2336135
1.2340641
1.2327555
1.2328106
1.2327433
1.2328274
1.2327686
1.2328978
1.2328453
1.2330502
1.2330022
1.2333232
1.2332762
1.2337428
1.2336175
1.2340744
1.2274451
1.2262764
1.2274309
1.2258765
1.2277175
1.2258881
1.2280262
1.2258782
1.2276683
1.2266731
1.2276516
1.2262779
1.2279175
1.2262413
1.2282028
1.2261724
1.2280346
1.2271999
1.2280039
1.2267842
1.2282384
1.2267014
1.2285014
1.2265884
1.2285246
1.2278206
1.2284786
1.2273719
1.2286789
1.2272474
1.228916
1.2271096
1.2291585
1.228528
1.2291175
1.2280679
1.229312
1.2279287
1.2295477
1.2277975
1.2297263
1.2291243
1.2297115
1.2286708
1.2299282
1.2285465
1.2301875
1.2284587
1.2299882
1.22946
1.2299815
1.2289904
1.2301924
1.2288466
1.2304286
1.2287445
1.2301219
1.2297239
1.2301091
1.2292235
1.2302951
1.2290271
1.2304978
1.228876
1.2302871
1.2300436
1.2302649
1.2295162
1.2304171
1.2292593
1.2305754
1.2290432
1.2305025
1.2304219
1.2304705
1.2298775
1.2305826
1.2295595
1.2306847
1.2292682
1.2307773
1.2308534
1.2307358
1.2303088
1.2308041
1.229937
1.2308385
1.2295644
1.2311177
1.2313329
1.2310698
1.2308115
1.2310977
1.2304059
1.231058
1.2299559
1.2315297
1.2318537
1.2314768
1.2313725
1.2314668
1.230957
1.2313488
1.2304418
1.23201
1.2324161
1.231955
1.2319939
1.2319217
1.231599
1.2317331
1.2310396
1.2325607
1.2330256
1.2325069
1.2326713
1.2324631
1.2323161
1.2322293
1.2317506
1.2330911
1.2335903
1.2330396
1.2332924
1.2329936
1.2329853
1.2327317
1.2324381
1.2335407
1.2340711
1.2334947
1.2338147
1.2334533
1.2335491
1.233196
1.2330395
1.2339402
1.234503
1.2338982
1.2342719
1.2338601
1.2340341
1.2336017
1.2335514
1.2342674
1.234879
1.2342324
1.2346714
1.2341993
1.23445
1.2339562
1.2339894
1.2345532
1.2352141
1.2345271
1.2350263
1.2344994
1.2348103
1.2342664
1.2343576
1.234765
1.235459
1.2347469
1.2352896
1.2347301
1.2350803
1.2345088
1.2346332
1.2349221
1.2356143
1.2349174
1.2354657
1.2349126
1.2352651
1.2347142
1.2348368
1.2350148
1.2356577
1.2350272
1.2355351
1.2350345
1.2353485
1.2348627
1.2349441
1.2350561
1.2356331
1.2350872
1.2355414
1.2351039
1.2353628
1.2349585
1.2349813
1.2350901
1.2355699
1.2351285
1.2355241
1.23515
1.2353469
1.2350294
1.2349859
1.2351125
1.23555
1.235155
1.235482
1.2351781
1.2353074
1.235079
1.2349675
1.2351299
1.2354778
1.2351766
1.2354369
1.2352002
1.2352573
1.2351188
1.2349387
1.2351493
1.2354591
1.2351949
1.2353997
1.2352196
1.2352122
1.2351544
1.2349106
1.2351425
1.2354074
1.2351936
1.2353378
1.2352275
1.2351591
1.2351818
1.2348797
1.2349941
1.2351331
1.2350649
1.2350819
1.2351328
1.2349491
1.2351283
1.2347262
1.2345291
1.234579
1.2346295
1.2345285
1.2347413
1.2344142
1.23479
1.2342344
1.2340128
1.234193
1.2340809
1.2340803
1.2341593
1.2338868
1.2341854
1.2336374
1.2338162
1.2340746
1.2338379
1.2339232
1.2338428
1.2336614
1.233782
1.2333306
1.2337635
1.2340526
1.2337657
1.233884
1.2337367
1.2335894
1.2336303
1.2332194
1.2337568
1.2340666
1.2337482
1.2338883
1.2337008
1.2335756
1.2335681
1.2331843
1.2337579
1.2340714
1.2337455
1.2338888
1.2336906
1.2335702
1.2335494
1.2331742
1.2167457
1.2217404
1.2183936
1.2228894
1.2201574
1.2243141
1.2175043
1.2222099
1.2190128
1.2232839
1.220663
1.2246548
1.2183125
1.222758
1.2197029
1.2237594
1.2212749
1.2251087
1.2190532
1.2233178
1.2203523
1.2242409
1.2219512
1.2256595
1.2198306
1.2240033
1.2210526
1.2248402
1.2227752
1.2264167
1.2205457
1.22469
1.2217895
1.2255284
1.2236519
1.2272306
1.2209341
1.2250233
1.2222272
1.2258976
1.2242158
1.2277122
1.2211967
1.2251857
1.2224762
1.2260594
1.2245223
1.2279393
1.2215318
1.2253747
1.2227678
1.2262292
1.2248061
1.2281276
1.2219682
1.2256244
1.2231493
1.2264516
1.2251729
1.2283672
1.2225292
1.2259516
1.2236384
1.226744
1.2256502
1.2286804
1.2232557
1.2263912
1.224277
1.2271384
1.2262672
1.2290867
1.2241597
1.2269622
1.2250766
1.227652
1.2270375
1.2296039
1.2252405
1.2276776
1.2260553
1.228309
1.2279806
1.2302505
1.2264991
1.2285502
1.2271889
1.2290992
1.2290819
1.2310365
1.2277446
1.2294604
1.2283356
1.2299547
1.230192
1.231876
1.228818
1.2302698
1.2293275
1.2307242
1.231137
1.2326295
1.2297532
1.2310059
1.2302019
1.2314357
1.2319551
1.2333131
1.2305319
1.2316411
1.2309259
1.2320385
1.2326598
1.2338866
1.2311685
1.2321798
1.2314917
1.2325173
1.2331989
1.2343334
1.231688
1.2326502
1.2319875
1.232976
1.233659
1.2347689
1.2320774
1.2330352
1.2323394
1.2333255
1.2339737
1.2350886
1.232316
1.2333216
1.2325568
1.2335783
1.2341435
1.2353082
1.2324697
1.2335192
1.2326858
1.2337525
1.234225
1.2354572
1.2325548
1.2336641
1.232757
1.2338711
1.2342521
1.2355488
1.2326002
1.2337622
1.2327986
1.2339578
1.2342524
1.2356091
1.232623
1.2338559
1.2328233
1.2340186
1.2342357
1.2356468
1.232642
1.2339003
1.2328452
1.2340658
1.2342123
1.2356715
1.2326604
1.2339658
1.2328396
1.2341058
1.234187
1.2356918
1.2326067
1.2339403
1.232758
1.2341117
1.2341412
1.2356962
1.2322182
1.2337579
1.2324863
1.2339509
1.2339463
1.235597
1.2315942
1.2331446
1.2318981
1.2334433
1.233299
1.2350876
1.2311546
1.2326297
1.2314108
1.2328877
1.2324652
1.2342116
1.2309217
1.2323649
1.2311408
1.2325702
1.231943
1.2335741
1.2307866
1.232211
1.2310036
1.23239
1.2317124
1.2332653
1.2307347
1.2321533
1.2309575
1.2323233
1.2316524
1.2331732
1.2323153
1.2314938
1.2304443
1.2290367
1.2270151
1.224368
1.2321797
1.2313704
1.2303179
1.2288875
1.2268453
1.2241716
1.2330891
1.2315758
1.2305159
1.2291562
1.227207
1.2246887
1.2329117
1.2314486
1.2303896
1.2290126
1.2270511
1.2245237
1.2337529
1.232036
1.2307233
1.2293508
1.2274781
1.2250971
1.2335652
1.2318682
1.2305944
1.2292254
1.2273554
1.2249849
1.2341401
1.2327034
1.2312229
1.2297307
1.2278549
1.2255507
1.233967
1.2325004
1.2310802
1.229632
1.2277842
1.2254994
1.2342805
1.2331886
1.2318722
1.2303897
1.2284899
1.2261872
1.2341333
1.2330209
1.2317405
1.2302973
1.2284287
1.2261332
1.2343172
1.2333897
1.2322559
1.2309125
1.2290882
1.2268057
1.234165
1.233236
1.2321187
1.2307797
1.2289443
1.2266249
1.2343241
1.2334495
1.2323689
1.2310882
1.2293179
1.2270623
1.2341584
1.2332937
1.2322223
1.2309265
1.2291152
1.2267943
1.2343294
1.2334885
1.2324078
1.2311396
1.2293899
1.2271528
1.2341506
1.2333191
1.2322485
1.2309619
1.2291646
1.2268554
1.2343393
1.2335366
1.2324507
1.2311886
1.2294586
1.2272476
1.234144
1.2333508
1.232275
1.2309937
1.2292133
1.2269264
1.2343544
1.2335966
1.2325068
1.231253
1.2295511
1.2273799
1.2341387
1.2333926
1.2323129
1.2310406
1.229286
1.2270375
1.2343824
1.2336714
1.2325805
1.2313406
1.2296791
1.2275674
1.2341376
1.2334465
1.2323674
1.2311108
1.2293976
1.2272128
1.2344212
1.2337627
1.2326792
1.2314598
1.229855
1.2278288
1.2341422
1.2335152
1.2324429
1.2312099
1.229557
1.2274639
1.234489
1.2338843
1.2328185
1.2316278
1.2300974
1.2281891
1.2341674
1.2336045
1.2325504
1.2313535
1.2297858
1.2278248
1.2345765
1.2340217
1.2329918
1.2318491
1.2304209
1.2286666
1.2341961
1.2337084
1.2326966
1.2315573
1.2301068
1.2283178
1.2346454
1.2341619
1.2332062
1.2321372
1.2308427
1.2292832
1.2342311
1.2338201
1.232886
1.2318375
1.2305405
1.2289681
1.2347423
1.2343264
1.2334563
1.2324682
1.2313087
1.2299421
1.2342809
1.2339409
1.2331021
1.2321524
1.2310106
1.2296562
1.2348462
1.2344786
1.2336798
1.2327729
1.2317362
1.2305397
1.234342
1.234051
1.2333014
1.2324467
1.2314443
1.2302795
1.2349601
1.2346357
1.2339102
1.2330787
1.232145
1.2310901
1.2344094
1.2341582
1.2334941
1.232729
1.2318476
1.2308424
1.2350662
1.2347686
1.2341093
1.233349
1.2325006
1.2315605
1.234474
1.2342465
1.2336559
1.2329695
1.2321883
1.2313129
1.2351719
1.2348929
1.2342929
1.2336012
1.2328203
1.2319674
1.234539
1.2343241
1.2337975
1.2331829
1.2324878
1.231718
1.2352901
1.2350121
1.2344615
1.2338245
1.2330984
1.2323066
1.2346104
1.2343902
1.2339152
1.233364
1.2327388
1.2320478
1.2354495
1.2351553
1.2346262
1.2340292
1.2333467
1.2325926
1.2347106
1.2344641
1.2340238
1.2335249
1.2329528
1.2323135
1.235642
1.2353143
1.2347872
1.2342103
1.2335503
1.2328087
1.2348298
1.2345443
1.2341194
1.2336554
1.2331134
1.2324953
1.2358167
1.2354364
1.2349157
1.2343507
1.2337019
1.2329587
1.2349385
1.2346055
1.234188
1.2337488
1.2332229
1.2326098
1.2359819
1.2355399
1.2350191
1.2344645
1.2338212
1.23307
1.235039
1.2346528
1.2342408
1.233821
1.2333036
1.2326876
1.2361203
1.2356242
1.2351084
1.2345575
1.2339152
1.2331536
1.2351326
1.2346899
1.2342825
1.2338771
1.2333636
1.2327407
1.236252
1.2356903
1.235179
1.2346341
1.2339898
1.2332176
1.2352184
1.2347165
1.234315
1.2339216
1.23341
1.2327795
1.236361
1.2357435
1.2352391
1.2346988
1.2340511
1.2332676
1.2352966
1.2347363
1.2343416
1.2339572
1.2334465
1.2328087
1.2364602
1.2357846
1.2352875
1.23475
1.2341001
1.2333063
1.2353657
1.2347485
1.2343624
1.2339862
1.2334767
1.232831
1.2365431
1.2358169
1.2353267
1.2347925
1.2341338
1.2333183
1.2354219
1.2347588
1.234382
1.234008
1.2334901
1.2328166
1.2366157
1.2358378
1.2353427
1.2347896
1.2340702
1.2331698
1.2354693
1.2347606
1.2343802
1.2339794
1.2333887
1.2326114
1.2366699
1.235814
1.2352475
1.2345856
1.2337036
1.2326554
1.2354984
1.2347108
1.2342575
1.2337091
1.2329441
1.2320422
1.2366537
1.2356307
1.2348521
1.2339985
1.2330841
1.2321256
1.2354675
1.2344826
1.2337918
1.2330757
1.2323308
1.2315512
1.2365054
1.2350705
1.2341765
1.2334621
1.2327426
1.2318942
1.2352961
1.2338875
1.2331233
1.2326028
1.2320565
1.2313689
1.2359514
1.2342835
1.2338125
1.2333125
1.2326401
1.2317917
1.2347377
1.233141
1.2328195
1.2324986
1.2319826
1.2312859
1.2349668