/*--------------------------------*- C++ -*----------------------------------*\
| =========                 |                                                 |
| \\      /  F ield         | OpenFOAM: The Open Source CFD Toolbox           |
|  \\    /   O peration     | Version:  2206                                  |
|   \\  /    A nd           | Website:  www.openfoam.com                      |
|    \\/     M anipulation  |                                                 |
\*---------------------------------------------------------------------------*/
FoamFile
{
    version     2.0;
    format      ascii;
    arch        "LSB;label=32;scalar=64";
    class       volScalarField;
    location    "200";
    object      T;
}
// * * * * * * * * * * * * * * * * * * * * * * * * * * * * * * * * * * * * * //

dimensions      [0 0 0 1 0 0 0];

internalField   nonuniform List<scalar> 
50904
(
298.13218
297.85355
298.07088
297.68297
297.95536
297.54451
297.86855
297.31923
297.75733
297.2515
297.64986
297.00361
297.56253
297.00298
297.43643
296.75518
297.30893
296.7365
297.18278
296.51522
297.05677
296.51869
296.96931
296.35108
296.971
296.46626
296.90574
296.32546
296.97575
296.49464
296.91134
296.35906
296.99595
296.53859
296.9287
296.40599
297.02383
296.59477
296.95507
296.46464
297.06119
296.66417
296.99229
296.53668
297.11045
296.75001
297.04274
296.62817
297.17348
296.85395
297.1096
296.73863
297.25261
296.97675
297.19412
296.86935
297.34493
297.11383
297.29427
297.01638
297.43622
297.24504
297.39468
297.1589
297.51562
297.3566
297.48177
297.28063
297.5848
297.45137
297.55693
297.3835
297.64273
297.53027
297.6194
297.46723
297.68959
297.59398
297.67126
297.53589
297.72598
297.64385
297.71142
297.58917
297.75148
297.67978
297.73976
297.63032
297.76478
297.70023
297.75426
297.65508
297.76979
297.711
297.76023
297.66766
297.77007
297.71431
297.76127
297.67079
297.76733
297.71527
297.75943
297.67138
297.76239
297.71729
297.75436
297.67797
297.75657
297.71908
297.7471
297.68776
297.74945
297.72613
297.7427
297.69154
297.76162
297.76524
297.75173
297.74885
297.88282
297.91766
297.92338
297.92273
298.13155
298.1741
298.1744
298.17592
298.30658
298.31737
298.32649
298.29559
298.38285
298.38157
298.38893
298.35606
298.42761
298.42084
298.42898
298.40275
298.4475
298.43975
298.45019
298.42973
298.01865
297.60342
298.06003
297.71715
298.1686
297.9253
298.24721
298.05495
298.2968
298.13935
298.32862
298.19514
298.34992
298.23544
297.79838
297.21071
297.81467
297.31336
297.90776
297.5393
297.99715
297.69541
298.06733
297.81091
298.12185
297.89816
298.1647
297.96726
297.57838
296.89735
297.58288
297.00422
297.65927
297.24583
297.74719
297.40453
297.82319
297.51871
297.88721
297.61128
297.94158
297.69075
297.38252
296.68478
297.41348
296.81968
297.48693
297.07368
297.56214
297.22559
297.62468
297.32572
297.67761
297.39902
297.72369
297.46591
297.17207
296.5028
297.24772
296.67956
297.31926
296.92581
297.37835
297.06732
297.42142
297.16536
297.45461
297.23786
297.48247
297.29677
296.99995
296.37809
297.09208
296.56878
297.15286
296.81047
297.20274
296.94718
297.23816
297.04027
297.26387
297.10844
297.287
297.15956
296.94389
296.35737
297.03163
296.54566
297.08766
296.78467
297.13522
296.91683
297.16804
297.00429
297.19314
297.06837
297.21812
297.11576
296.94524
296.38854
297.0267
296.56814
297.0817
296.80233
297.13012
296.9306
297.16476
297.01415
297.1915
297.07549
297.21394
297.12108
296.95654
296.43213
297.03007
296.5993
297.08389
296.82637
297.13235
296.94464
297.167
297.02579
297.19389
297.08343
297.21605
297.12916
296.97685
296.48533
297.04105
296.63804
297.09275
296.85186
297.13976
296.96837
297.17424
297.04655
297.2008
297.09715
297.22292
297.1424
297.00841
296.55255
297.06155
296.69559
297.11065
296.89888
297.15681
297.00826
297.19084
297.0827
297.21725
297.12798
297.2398
297.16827
297.05391
296.64124
297.09568
296.77407
297.14163
296.96747
297.18708
297.06746
297.22104
297.13361
297.24777
297.17658
297.27004
297.21369
297.11895
296.74994
297.15289
296.8786
297.19519
297.0679
297.24001
297.16391
297.27319
297.21134
297.29817
297.24882
297.31904
297.27898
297.20147
296.88127
297.23093
297.00948
297.27249
297.18909
297.31573
297.26459
297.34573
297.30711
297.36822
297.3391
297.38676
297.36373
297.3015
297.02933
297.3291
297.15688
297.3696
297.32122
297.41001
297.38525
297.43698
297.42304
297.45677
297.45014
297.47261
297.47042
297.40285
297.17434
297.42948
297.30228
297.46884
297.44708
297.50541
297.50453
297.52929
297.53778
297.54621
297.56108
297.5594
297.57842
297.49116
297.29741
297.51707
297.42452
297.55478
297.55358
297.58776
297.6045
297.60878
297.63367
297.62327
297.65348
297.6343
297.66847
297.56759
297.40006
297.59288
297.52311
297.62801
297.63936
297.65753
297.6846
297.67602
297.71032
297.68853
297.72722
297.69788
297.73967
297.63153
297.48524
297.65806
297.59941
297.68989
297.70863
297.71592
297.74964
297.73209
297.77239
297.74297
297.7868
297.75108
297.79709
297.68265
297.55823
297.71059
297.66632
297.74071
297.76234
297.76373
297.80076
297.77811
297.82112
297.78775
297.83353
297.79497
297.84188
297.722
297.61398
297.74991
297.71858
297.7789
297.80351
297.80036
297.83984
297.81383
297.85704
297.82275
297.86913
297.82945
297.87562
297.74846
297.65849
297.77566
297.7613
297.80533
297.83697
297.82653
297.86854
297.83933
297.8845
297.84724
297.89426
297.85296
297.89974
297.76052
297.68182
297.78515
297.78548
297.81627
297.85846
297.83911
297.88462
297.85194
297.89682
297.85837
297.90517
297.86351
297.90983
297.76556
297.68866
297.78729
297.7924
297.81611
297.86503
297.83811
297.88985
297.85017
297.90273
297.85671
297.90927
297.86128
297.91344
297.76664
297.68565
297.78839
297.78667
297.81084
297.85838
297.83138
297.882
297.84255
297.89438
297.84878
297.90144
297.85247
297.90535
297.76538
297.67864
297.78687
297.77568
297.80583
297.84591
297.82489
297.87076
297.83495
297.88302
297.84051
297.88984
297.84387
297.89375
297.76053
297.67787
297.78109
297.77144
297.80098
297.83052
297.81849
297.85735
297.82791
297.87202
297.83325
297.87855
297.83662
297.88277
297.75455
297.6747
297.77456
297.76337
297.79724
297.81567
297.81245
297.84382
297.82068
297.85995
297.82563
297.86773
297.82905
297.87239
297.74894
297.6755
297.77073
297.7739
297.79949
297.82907
297.81543
297.85297
297.82234
297.86308
297.82697
297.8716
297.83013
297.87536
297.78251
297.71928
297.8003
297.82616
297.8328
297.88149
297.85302
297.91585
297.86544
297.93369
297.87145
297.94572
297.87572
297.95338
297.93875
297.8951
297.95734
297.97129
297.98211
298.04727
298.00776
298.0914
298.02673
298.11891
298.03917
298.13718
298.04833
298.15135
298.18662
298.11845
298.17721
298.11525
298.17805
298.14594
298.19763
298.19342
298.21981
298.23445
298.23925
298.26676
298.25631
298.29236
298.32222
298.22959
298.29465
298.19246
298.27297
298.19503
298.28151
298.23282
298.30531
298.27882
298.33062
298.31615
298.35341
298.34578
298.37888
298.29167
298.34565
298.24113
298.3217
298.23932
298.33267
298.28741
298.35966
298.33342
298.38613
298.36989
298.40798
298.39638
298.41677
298.34851
298.38231
298.29642
298.36898
298.30866
298.39383
298.36735
298.42658
298.41627
298.45065
298.44677
298.46591
298.46433
298.43893
298.38969
298.40481
298.3446
298.40136
298.37303
298.43815
298.44224
298.4739
298.48894
298.49484
298.51258
298.50473
298.52323
298.3658
298.26802
298.37678
298.29274
298.38411
298.31162
298.39073
298.33116
298.4019
298.36127
298.42604
298.42128
298.20021
298.02596
298.22568
298.07067
298.24679
298.10895
298.26554
298.14645
298.28785
298.19608
298.32825
298.2878
297.98986
297.76135
298.02687
297.81657
298.06006
297.86662
298.09037
297.91578
298.12241
297.97595
298.16992
298.07852
297.76738
297.52737
297.80345
297.57371
297.83709
297.61806
297.87005
297.66371
297.90579
297.72249
297.95601
297.8268
297.5119
297.34625
297.5394
297.3871
297.56604
297.42717
297.59461
297.46765
297.62992
297.51253
297.681
297.5927
297.31119
297.19641
297.3276
297.23565
297.34827
297.2697
297.37392
297.30707
297.41112
297.35202
297.46418
297.43413
297.23913
297.14985
297.2596
297.19101
297.28037
297.22638
297.30451
297.26178
297.33821
297.30821
297.39796
297.38892
297.23551
297.15372
297.25613
297.1952
297.2773
297.2295
297.30207
297.26424
297.33634
297.31018
297.39665
297.38986
297.23784
297.16347
297.25866
297.20207
297.28002
297.23526
297.30494
297.26933
297.34049
297.31449
297.40011
297.3925
297.24484
297.18078
297.26609
297.21391
297.28762
297.24619
297.31174
297.27955
297.34874
297.32324
297.40725
297.39891
297.26206
297.2055
297.28374
297.23942
297.30471
297.2692
297.32783
297.30126
297.36447
297.34271
297.42137
297.41492
297.29145
297.24635
297.31144
297.27675
297.33225
297.30428
297.35724
297.33413
297.38827
297.37417
297.4436
297.44302
297.33942
297.30676
297.35862
297.33335
297.37786
297.35917
297.39921
297.3867
297.42796
297.42354
297.47891
297.48933
297.40456
297.38632
297.42166
297.40902
297.43874
297.43138
297.45766
297.45632
297.48288
297.48963
297.52712
297.55048
297.48762
297.48858
297.50203
297.50694
297.51637
297.5252
297.53211
297.54604
297.55307
297.57624
297.58964
297.63145
297.57179
297.59389
297.58368
297.60932
297.59549
297.62457
297.60853
297.64198
297.62601
297.66735
297.65637
297.71561
297.64458
297.68183
297.65443
297.6952
297.66423
297.70861
297.67514
297.72395
297.68994
297.74602
297.71565
297.78683
297.70646
297.75127
297.7147
297.76292
297.72292
297.77481
297.73213
297.78853
297.74478
297.80808
297.76674
297.84324
297.75826
297.80701
297.76531
297.81706
297.77232
297.82743
297.78023
297.8396
297.79116
297.85703
297.81015
297.88795
297.80141
297.85046
297.80771
297.85901
297.81398
297.8678
297.82102
297.87822
297.83065
297.89338
297.84684
297.92071
297.83532
297.88181
297.84097
297.88861
297.84655
297.89549
297.85275
297.90393
297.86056
297.91678
297.87065
297.94178
297.85759
297.90437
297.86218
297.9091
297.86636
297.91432
297.87063
297.92179
297.87621
297.93389
297.88649
297.95772
297.86727
297.91314
297.87126
297.91723
297.87484
297.92183
297.87834
297.92774
297.88205
297.93826
297.88973
297.96049
297.86445
297.91612
297.8678
297.91956
297.87088
297.92339
297.87442
297.92849
297.87894
297.93771
297.88599
297.9576
297.8553
297.90804
297.85828
297.91205
297.86117
297.91572
297.86476
297.92096
297.87007
297.93019
297.8788
297.94917
297.8465
297.89668
297.84937
297.90068
297.85224
297.90477
297.85579
297.91041
297.86051
297.91988
297.87417
297.93801
297.83939
297.88601
297.8423
297.88974
297.84513
297.89409
297.84871
297.89985
297.85501
297.90939
297.86731
297.92694
297.8322
297.87602
297.83558
297.88004
297.83898
297.88405
297.84307
297.88946
297.8494
297.89889
297.86112
297.91632
297.83251
297.87914
297.83587
297.88331
297.83941
297.88763
297.84321
297.89345
297.84853
297.90317
297.86093
297.92213
297.87967
297.95958
297.88371
297.966
297.88775
297.97249
297.89211
297.98072
297.89784
297.99347
297.90829
298.0166
298.05675
298.16531
298.06419
298.17839
298.0714
298.19076
298.07889
298.20417
298.08806
298.2206
298.10173
298.24506
298.27359
298.31708
298.28798
298.33707
298.30099
298.35484
298.3126
298.37168
298.32345
298.38825
298.33583
298.40832
298.37609
298.37308
298.39366
298.39441
298.40828
298.41211
298.4199
298.42711
298.4296
298.44111
298.44016
298.46059
298.42807
298.41877
298.44252
298.43391
298.45373
298.44562
298.46196
298.45463
298.46908
298.46389
298.47848
298.47939
298.47707
298.47584
298.48391
298.48211
298.48821
298.48592
298.49081
298.48875
298.49394
298.49349
298.50038
298.50366
298.50913
298.52755
298.51105
298.52926
298.51092
298.52895
298.5103
298.52855
298.5115
298.5304
298.5166
298.53819
298.4604
298.48594
298.48289
298.52179
298.4875
298.52741
298.48687
298.52745
298.48425
298.52498
298.48115
298.52133
298.37826
298.39224
298.40826
298.44605
298.41726
298.46003
298.42039
298.46449
298.42107
298.46597
298.42083
298.46566
298.22209
298.19251
298.25268
298.25242
298.2658
298.27348
298.27389
298.28481
298.28015
298.29222
298.28479
298.29774
298.00855
297.9445
298.03945
298.00732
298.05491
298.03128
298.06541
298.04569
298.07401
298.05643
298.08222
298.06502
297.73536
297.7008
297.76666
297.75385
297.78203
297.7758
297.79301
297.78998
297.80202
297.80094
297.81049
297.81034
297.52524
297.5476
297.56142
297.6059
297.5773
297.62678
297.58796
297.64007
297.5967
297.65008
297.60528
297.65891
297.46545
297.50435
297.50574
297.56337
297.52406
297.58456
297.5353
297.59771
297.54431
297.60794
297.55297
297.61731
297.46497
297.50425
297.50501
297.56449
297.5234
297.58725
297.53472
297.60123
297.54426
297.61245
297.55345
297.62313
297.46928
297.50639
297.51
297.56937
297.52876
297.59432
297.54044
297.60951
297.55031
297.62186
297.55984
297.63404
297.47675
297.51132
297.51845
297.57679
297.5378
297.60364
297.54999
297.61997
297.5602
297.63342
297.5701
297.647
297.48942
297.52339
297.53171
297.58977
297.55112
297.618
297.56341
297.63541
297.57401
297.64996
297.58451
297.66476
297.50964
297.54613
297.55104
297.61148
297.57013
297.64068
297.58245
297.65881
297.59296
297.67407
297.60358
297.68978
297.5397
297.58395
297.57839
297.64684
297.59697
297.67583
297.60912
297.69401
297.61931
297.70927
297.62948
297.72496
297.58052
297.63598
297.61613
297.69483
297.63304
297.72042
297.64422
297.73715
297.65363
297.75141
297.66329
297.76621
297.6343
297.70559
297.66499
297.75669
297.68021
297.77937
297.69057
297.79361
297.69947
297.80523
297.70868
297.8173
297.69377
297.77664
297.71958
297.81901
297.73244
297.83813
297.74116
297.85039
297.74876
297.86054
297.75687
297.87092
297.74758
297.83741
297.76987
297.87237
297.78111
297.88837
297.78874
297.89868
297.79539
297.90728
297.80243
297.91625
297.79427
297.88604
297.81356
297.91557
297.82332
297.9293
297.82994
297.93836
297.83563
297.94612
297.84157
297.95437
297.83406
297.92569
297.85021
297.95227
297.85825
297.96503
297.86392
297.97331
297.86899
297.98048
297.87448
297.98821
297.8659
297.95569
297.88029
297.98356
297.88728
297.99463
297.89231
298.0021
297.89696
298.00869
297.9021
298.01588
297.88825
297.97853
297.90153
298.00509
297.90764
298.01498
297.91213
298.02172
297.91637
298.0278
297.92114
298.03457
297.90161
297.99088
297.91396
298.01749
297.91968
298.02683
297.9239
298.0329
297.92785
298.03834
297.93218
298.04441
297.90499
297.99193
297.91816
298.01608
297.9237
298.02441
297.92747
298.03003
297.93074
298.035
297.93419
298.04048
297.9033
297.9878
297.91708
298.00919
297.92229
298.01718
297.9258
298.02247
297.92876
298.0269
297.93179
298.03171
297.89849
297.97709
297.91192
297.99659
297.917
298.00492
297.92051
298.01023
297.92349
298.01461
297.92658
298.0193
297.89221
297.95904
297.90524
297.97763
297.91034
297.98493
297.91365
297.99006
297.91643
297.99437
297.91938
297.99905
297.88496
297.94907
297.89858
297.96772
297.90376
297.97494
297.90713
297.98033
297.90989
297.98479
297.9127
297.98985
297.87928
297.93882
297.89322
297.95578
297.89855
297.96295
297.902
297.96821
297.90477
297.97256
297.90745
297.97735
297.87798
297.94752
297.89114
297.96676
297.89623
297.97465
297.89963
297.98053
297.90252
297.98536
297.90562
297.99055
297.92324
298.04915
297.93465
298.07552
297.93987
298.08808
297.94352
298.09661
297.9469
298.10405
297.95074
298.11203
298.11907
298.27727
298.13036
298.30272
298.13569
298.31605
298.1397
298.3259
298.14368
298.33494
298.14821
298.34443
298.35011
298.43507
298.35909
298.4556
298.36326
298.46651
298.36631
298.47432
298.36906
298.48108
298.3719
298.48775
298.45283
298.48581
298.46078
298.50501
298.46349
298.51305
298.4647
298.51807
298.46517
298.52189
298.46525
298.52527
298.49183
298.50358
298.50095
298.52175
298.50209
298.52691
298.50114
298.52914
298.49923
298.53032
298.49683
298.53126
298.51155
298.52286
298.52116
298.54489
298.52134
298.54934
298.51864
298.54939
298.51485
298.54808
298.51066
298.5466
298.52434
298.55256
298.53113
298.57067
298.53026
298.57346
298.52732
298.57251
298.52324
298.57004
298.51847
298.56697
298.4793
298.51811
298.47683
298.51378
298.47437
298.50923
298.47231
298.50471
298.47015
298.4987
298.46526
298.48638
298.45142
298.44083
298.42097
298.46513
298.42018
298.4629
298.41916
298.45923
298.41851
298.45292
298.41721
298.44041
298.41214
298.41217
298.3927
298.3428
298.28775
298.30056
298.29028
298.30176
298.29195
298.30126
298.29363
298.29743
298.29487
298.28613
298.29231
298.25713
298.27467
298.18643
298.08878
298.07104
298.09353
298.07494
298.09783
298.07727
298.10217
298.07706
298.10654
298.06981
298.10743
298.04394
298.09426
297.97838
297.81862
297.81633
297.82629
297.82104
297.8317
297.82384
297.83858
297.82322
297.8458
297.81512
297.84929
297.79674
297.84049
297.7341
297.61296
297.66465
297.621
297.66835
297.62901
297.67085
297.63589
297.67122
297.64427
297.66285
297.64863
297.6359
297.63451
297.57199
297.56093
297.62432
297.56818
297.63006
297.57587
297.63394
297.58443
297.63554
297.59007
297.63134
297.59032
297.61049
297.5767
297.54769
297.56203
297.63212
297.57022
297.64005
297.5787
297.64693
297.58804
297.65223
297.59678
297.65278
297.60102
297.64162
297.58986
297.58273
297.56875
297.64505
297.57769
297.65522
297.58694
297.66482
297.59775
297.67434
297.60953
297.68093
297.61854
297.67265
297.60998
297.62172
297.57945
297.65976
297.58897
297.67193
297.59913
297.68417
297.61123
297.69733
297.62534
297.70803
297.63786
297.70492
297.6331
297.66179
297.59463
297.67886
297.60476
297.69234
297.61582
297.70651
297.62931
297.72231
297.6454
297.73638
297.66074
297.73969
297.66045
297.70533
297.61408
297.705
297.62488
297.71972
297.6368
297.73501
297.65141
297.75164
297.66932
297.76892
297.68777
297.77818
297.69273
297.75128
297.63957
297.74018
297.65042
297.75521
297.66277
297.77086
297.6785
297.78901
297.6982
297.80849
297.72015
297.82154
297.73033
297.79922
297.67318
297.78081
297.68402
297.79559
297.69693
297.81201
297.71404
297.83149
297.73616
297.85249
297.7609
297.86646
297.77362
297.84774
297.71805
297.82978
297.72851
297.84307
297.74122
297.85883
297.75857
297.87827
297.78153
297.89928
297.80743
297.91334
297.82084
297.89659
297.76528
297.88132
297.77511
297.89302
297.78725
297.9074
297.80419
297.92578
297.82704
297.94572
297.85278
297.95812
297.86533
297.94163
297.80949
297.92539
297.81779
297.93608
297.82854
297.94965
297.84445
297.96711
297.86643
297.98544
297.89106
297.99617
297.90217
297.97956
297.84755
297.96268
297.8548
297.97233
297.86452
297.98471
297.87912
298.00096
297.89952
298.01827
297.92259
298.02824
297.93299
298.01253
297.88003
297.99588
297.88646
298.00436
297.8952
298.0153
297.90826
298.02972
297.92638
298.0457
297.94747
298.05561
297.95806
298.04219
297.90719
298.0229
297.91315
298.03063
297.92107
298.04029
297.93251
298.05289
297.94817
298.06761
297.96729
298.07818
297.97874
298.06802
297.9258
298.04111
297.9312
298.04817
297.93822
298.05676
297.94803
298.06791
297.96164
298.08146
297.97906
298.09263
297.99194
298.08632
297.93622
298.05012
297.94073
298.05616
297.94646
298.06379
297.95489
298.07425
297.96728
298.0868
297.9837
298.09841
297.9979
298.09558
297.93746
298.04554
297.9407
298.05061
297.94487
298.05747
297.95143
298.06759
297.96216
298.08068
297.97817
298.0928
297.99276
298.09337
297.9348
298.03608
297.93762
298.04036
297.94128
298.04651
297.94688
298.05611
297.95594
298.06946
297.97028
298.08415
297.98597
298.08835
297.92975
298.02351
297.93264
298.02762
297.9364
298.03374
297.94202
298.04344
297.95079
298.05741
297.96419
298.07347
297.9777
298.0803
297.92252
298.00311
297.92535
298.00759
297.92903
298.01438
297.9347
298.02558
297.94378
298.04317
297.95747
298.06564
297.96971
298.08392
297.9158
297.99433
297.91865
297.99993
297.9224
298.00887
297.92815
298.02204
297.93749
298.04315
297.95127
298.07347
297.96345
298.09871
297.91058
297.98196
297.91328
297.98676
297.91682
297.99432
297.92248
298.00692
297.93208
298.02866
297.94664
298.0572
297.96041
298.07785
297.90903
297.99542
297.91235
298.00063
297.91682
298.00867
297.92356
298.0217
297.93443
298.04102
297.95004
298.06641
297.96511
298.08675
297.95433
298.11909
297.95838
298.12688
297.96413
298.13793
297.9735
298.15504
297.98814
298.1797
298.00743
298.21007
298.0236
298.22925
298.15198
298.35228
298.15657
298.36088
298.16337
298.37224
298.17468
298.38953
298.1928
298.41433
298.21668
298.4459
298.22978
298.47062
298.3742
298.49345
298.3769
298.49924
298.38144
298.50753
298.38973
298.52165
298.40327
298.54355
298.42062
298.57279
298.42954
298.5978
298.46526
298.52821
298.46536
298.53099
298.46719
298.53689
298.47212
298.54996
298.4808
298.57108
298.49102
298.60098
298.49227
298.6235
298.49493
298.53183
298.49298
298.53239
298.49298
298.53603
298.4958
298.54574
298.50165
298.56367
298.50822
298.59159
298.50671
298.6163
298.5074
298.545
298.50392
298.54317
298.50262
298.54395
298.50378
298.54917
298.50707
298.55925
298.51034
298.57835
298.50398
298.59973
298.51486
298.56426
298.5108
298.56118
298.50879
298.56029
298.50861
298.56198
298.50978
298.56582
298.50959
298.57683
298.50046
298.59129
298.43554
298.39906
298.41678
298.36748
298.39741
298.34764
298.36499
298.31231
298.3696
298.2837
298.34781
298.24261
298.33262
298.23158
298.30399
298.20978
298.25217
298.12444
298.2339
298.08364
298.22521
298.07972
298.20005
298.06534
298.07713
297.9211
298.06752
297.88609
298.07003
297.89011
298.05292
297.88282
297.82651
297.67658
297.82006
297.63828
297.82543
297.63644
297.80995
297.62382
297.61365
297.50347
297.59514
297.44817
297.58514
297.41783
297.55397
297.37275
297.55166
297.47654
297.52881
297.41226
297.51345
297.36448
297.48167
297.30506
297.56546
297.5117
297.54031
297.44292
297.52133
297.38587
297.48835
297.32053
297.58681
297.55177
297.56033
297.48033
297.5382
297.41588
297.50366
297.34584
297.6122
297.59621
297.58495
297.52348
297.55941
297.45262
297.52322
297.3779
297.64266
297.64424
297.61477
297.57185
297.58563
297.49637
297.54724
297.41741
297.67808
297.69522
297.65023
297.62516
297.61807
297.54795
297.57773
297.4666
297.71853
297.74814
297.69128
297.6822
297.65692
297.60643
297.61507
297.52509
297.76351
297.8016
297.73763
297.74185
297.70261
297.67051
297.65973
297.59123
297.81151
297.85529
297.78692
297.80214
297.75128
297.73597
297.70656
297.65975
297.85582
297.90368
297.83253
297.85599
297.79779
297.79584
297.75391
297.7255
297.89202
297.94363
297.86884
297.8989
297.83465
297.84289
297.79181
297.77674
297.92267
297.97852
297.89976
297.93561
297.86568
297.88192
297.82291
297.81844
297.94837
298.01077
297.92584
297.96911
297.89093
297.91521
297.8468
297.85115
297.97125
298.04074
297.9496
298.00019
297.91285
297.94421
297.86484
297.87667
297.98699
298.06351
297.96653
298.02402
297.92853
297.96616
297.87789
297.89596
297.99539
298.07672
297.97567
298.03744
297.93593
297.9778
297.88194
297.90491
297.99264
298.07699
297.97306
298.03756
297.93228
297.97775
297.87551
297.90341
297.98892
298.07545
297.96647
298.03329
297.92466
297.97412
297.86601
297.89819
297.98009
298.08506
297.95732
298.02918
297.91464
297.96884
297.85426
297.88993
297.97069
298.07514
297.9456
298.0302
297.90276
297.96518
297.84169
297.88166
297.96291
298.09013
297.93352
298.03083
297.89006
297.96356
297.82856
297.87476
297.94912
298.05391
297.92034
298.02551
297.87636
297.95739
297.81521
297.86732
297.94653
298.08396
297.91392
298.02951
297.86594
297.9551
297.80248
297.8587
298.01084
298.20945
297.96602
298.14689
297.90076
298.03686
297.82256
297.91032
298.21434
298.44854
298.15726
298.38109
298.068
298.26386
297.96491
298.11879
298.42006
298.58197
298.37661
298.5385
298.30336
298.46144
298.21413
298.35873
298.48188
298.61111
298.45573
298.57874
298.41435
298.52829
298.36532
298.46467
298.4936
298.6035
298.47302
298.57644
298.44415
298.539
298.41314
298.49507
298.48989
298.58481
298.47271
298.559
298.4512
298.52891
298.43067
298.49631
298.48611
298.57441
298.47025
298.54863
298.452
298.52168
298.43615
298.49332
297.962
298.15663
298.07202
298.22356
298.03814
298.17467
297.70451
297.99986
297.85992
298.09262
297.85627
298.05646
297.43997
297.81868
297.63079
297.93627
297.63354
297.89332
297.20157
297.63564
297.42355
297.78068
297.39444
297.69752
296.92674
297.38664
297.18168
297.56659
297.1074
297.42595
296.67452
297.12531
296.92089
297.30577
296.8134
297.14127
296.60261
297.03665
296.81797
297.19789
296.66856
297.0044
296.62485
297.04326
296.82626
297.19448
296.64678
296.97785
296.66387
297.06476
296.85562
297.20945
296.6622
296.98148
296.71302
297.09249
296.8921
297.22831
296.68416
296.98741
296.77456
297.12795
296.93767
297.25154
296.71175
296.99437
296.85102
297.17296
296.99413
297.28083
296.75028
297.00738
296.94338
297.22897
297.06323
297.31777
296.80071
297.02757
297.05131
297.29689
297.14624
297.36512
296.86856
297.06081
297.1721
297.3754
297.2472
297.42946
296.95698
297.11073
297.28652
297.45311
297.35059
297.50755
297.0512
297.16934
297.38349
297.52089
297.45061
297.57341
297.1386
297.228
297.46613
297.58101
297.5332
297.6324
297.21401
297.27983
297.53269
297.63008
297.60257
297.6828
297.27416
297.324
297.58571
297.66945
297.66138
297.72719
297.32927
297.36691
297.62677
297.69951
297.69786
297.7546
297.36799
297.39616
297.65627
297.71865
297.72551
297.77451
297.3977
297.41712
297.67616
297.72479
297.74045
297.78169
297.41755
297.42863
297.67843
297.72681
297.74372
297.78256
297.42567
297.43071
297.67849
297.72355
297.74292
297.77916
297.4284
297.42782
297.67897
297.71713
297.73875
297.77082
297.43016
297.4229
297.67857
297.71101
297.735
297.76237
297.43153
297.41627
297.67223
297.69637
297.72323
297.75123
297.43394
297.40993
297.66837
297.68511
297.7152
297.74305
297.4366
297.40231
297.68978
297.68764
297.74857
297.73679
297.44595
297.39734
297.84847
297.76798
297.85014
297.79982
297.50357
297.42257
298.11207
298.03169
298.09757
298.00443
297.73809
297.60175
298.28608
298.2404
298.29217
298.22924
298.06594
297.93726
298.36887
298.33994
298.3899
298.34945
298.28139
298.19034
298.41428
298.39838
298.436
298.41678
298.38324
298.3152
298.43365
298.42276
298.45147
298.44231
298.4116
298.35303
298.68675
298.6005
298.5188
298.44688
298.37649
298.26607
298.68892
298.59936
298.51772
298.44525
298.36699
298.23106
298.40753
298.57085
298.49584
298.40938
298.31503
298.15977
298.42252
298.57027
298.49279
298.40352
298.29732
298.10983
298.16764
298.40543
298.42366
298.34549
298.22686
298.02615
298.18392
298.41526
298.41878
298.3312
298.19665
297.95898
298.02805
298.16775
298.24403
298.21263
298.09936
297.87464
298.03835
298.18611
298.24386
298.19073
298.0532
297.78715
297.97568
297.98766
297.99643
297.96195
297.86067
297.63599
297.97267
297.99152
297.99356
297.93869
297.80727
297.53901
297.97426
297.9242
297.85645
297.75814
297.61833
297.37844
297.97
297.91669
297.84204
297.73229
297.57486
297.30449
297.97479
297.91729
297.82772
297.70276
297.5397
297.28789
297.97006
297.90639
297.8091
297.67542
297.50206
297.22865
297.97584
297.91991
297.8293
297.70162
297.53603
297.28594
297.97114
297.90854
297.80954
297.67328
297.49844
297.22806
297.97726
297.92306
297.83371
297.70733
297.54325
297.29821
297.97273
297.91171
297.81372
297.67855
297.5048
297.23933
297.97918
297.92683
297.83895
297.71454
297.55308
297.31504
297.97459
297.91547
297.81896
297.68571
297.51413
297.25569
297.98134
297.9314
297.8455
297.72398
297.56654
297.33778
297.97691
297.9202
297.82583
297.69545
297.52751
297.27892
297.98438
297.93696
297.85363
297.73603
297.58432
297.3678
297.97965
297.92586
297.83425
297.70795
297.54563
297.31045
297.9871
297.9432
297.86333
297.75109
297.60745
297.40704
297.98259
297.93256
297.84487
297.72451
297.57077
297.35334
297.9893
297.95027
297.87568
297.77138
297.63891
297.45865
297.98632
297.94148
297.85955
297.74769
297.60585
297.41051
297.99334
297.9587
297.89068
297.79625
297.67776
297.52038
297.98963
297.9502
297.87609
297.77572
297.6495
297.47931
297.998
297.96717
297.90628
297.82225
297.71827
297.58318
297.99331
297.95921
297.89368
297.80532
297.69551
297.55031
298.00098
297.97393
297.92
297.84556
297.75481
297.639
297.9949
297.96619
297.90881
297.8315
297.73646
297.6126
298.00253
297.98372
297.93479
297.86856
297.78891
297.68907
297.99739
297.97256
297.9225
297.85507
297.77282
297.66687
298.0034
297.98837
297.9463
297.88798
297.81794
297.73144
297.99959
297.97804
297.93432
297.87523
297.8035
297.71228
298.00377
297.99094
297.95556
297.90426
297.84227
297.76638
298.00065
297.98256
297.94467
297.89296
297.83003
297.75083
298.00377
297.99296
297.96273
297.91756
297.86194
297.79427
298.00101
297.98544
297.95246
297.90686
297.8508
297.78088
298.00358
297.99308
297.96762
297.92678
297.87587
297.81452
298.00069
297.98664
297.95738
297.91673
297.86594
297.80323
298.00293
297.99236
297.97049
297.93152
297.88332
297.82615
298.00004
297.98665
297.95974
297.9224
297.87473
297.81641
298.00137
297.99073
297.9689
297.93278
297.88646
297.83213
297.99882
297.98568
297.96045
297.92538
297.87949
297.82359
297.99966
297.98822
297.9656
297.93253
297.88696
297.83418
297.99736
297.9845
297.9601
297.92631
297.8814
297.82674
297.99828
297.98581
297.96242
297.93262
297.88605
297.83399
297.99566
297.98286
297.9585
297.92554
297.88129
297.82755
297.99661
297.98242
297.95908
297.92926
297.88307
297.8323
297.9937
297.98105
297.95644
297.92422
297.88026
297.82776
297.99418
297.97915
297.95592
297.92602
297.87995
297.83004
297.99141
297.97884
297.95419
297.92251
297.87855
297.82693
297.99252
297.97619
297.95268
297.92239
297.87663
297.82701
297.98951
297.9765
297.95158
297.92018
297.87587
297.82434
297.99051
297.97311
297.94929
297.91885
297.87425
297.83069
297.98827
297.97358
297.94821
297.91767
297.87643
297.83654
297.98785
297.9704
297.95091
297.92518
297.90514
297.89746
297.98649
297.9716
297.9515
297.92949
297.91943
297.92612
297.98269
297.98127
297.98869
298.00623
298.05577
298.11653
297.98673
297.98664
297.99562
298.03837
298.10692
298.16999
298.00263
298.04491
298.13886
298.24301
298.31257
298.33639
298.00584
298.0652
298.1748
298.29558
298.35799
298.36951
298.06291
298.25495
298.40798
298.46012
298.44811
298.42626
298.07195
298.2876
298.43812
298.48244
298.46501
298.43962
298.27293
298.5547
298.54849
298.51838
298.48789
298.46563
298.2814
298.56823
298.55367
298.52155
298.49291
298.47029
298.63613
298.57074
298.55053
298.53021