/*--------------------------------*- C++ -*----------------------------------*\
| =========                 |                                                 |
| \\      /  F ield         | OpenFOAM: The Open Source CFD Toolbox           |
|  \\    /   O peration     | Version:  2206                                  |
|   \\  /    A nd           | Website:  www.openfoam.com                      |
|    \\/     M anipulation  |                                                 |
\*---------------------------------------------------------------------------*/
FoamFile
{
    version     2.0;
    format      ascii;
    arch        "LSB;label=32;scalar=64";
    class       volVectorField;
    location    "200";
    object      U;
}
// * * * * * * * * * * * * * * * * * * * * * * * * * * * * * * * * * * * * * //

dimensions      [0 1 -1 0 0 0 0];

internalField   nonuniform List<vector> 
50904
(
(-28.017183 0.8195011 0.051253423)
(-38.32225 1.7094123 0.18551741)
(-29.515081 4.5215691 0.29494714)
(-41.869886 7.3903851 0.48574762)
(-49.630586 1.2336435 0.25725223)
(-60.861718 2.7182772 0.5039957)
(-51.407638 6.3658858 0.28705601)
(-64.05041 9.6643246 0.64316701)
(-59.950637 1.0052695 0.44980936)
(-70.636432 2.4970692 0.8963487)
(-61.823426 6.090495 0.66517427)
(-73.466124 9.1363474 1.2540717)
(-66.054342 0.6537874 0.67051512)
(-75.967762 1.9956417 1.3122918)
(-67.748627 5.4710403 0.95581123)
(-78.248582 8.2759021 1.7632272)
(-70.087185 0.3514449 0.91932736)
(-79.091886 1.5513922 1.7796437)
(-71.199613 4.9756596 1.3131994)
(-80.581804 7.6599614 2.3627594)
(-71.777606 0.09079117 1.1950306)
(-80.136946 1.1798828 2.2953953)
(-72.388417 4.6619737 1.6922208)
(-81.11356 7.2571107 3.0040005)
(-71.90348 -0.20894817 1.5198826)
(-79.967239 0.78135028 2.868638)
(-72.445258 4.3896432 2.1291886)
(-80.89299 6.8808936 3.7167873)
(-71.692506 -0.56364827 1.9075155)
(-79.507966 0.31794861 3.5213173)
(-72.298851 4.0758828 2.6355722)
(-80.473721 6.4373532 4.5014266)
(-71.373767 -0.99443648 2.3596941)
(-78.884728 -0.2316122 4.2456628)
(-72.054844 3.6928014 3.266248)
(-79.896281 5.9087019 5.4083429)
(-70.911597 -1.4888659 2.8541386)
(-78.047368 -0.84877438 4.9961876)
(-71.657402 3.2383734 3.8748588)
(-79.10725 5.2977059 6.2675264)
(-70.264346 -2.0326818 3.3929511)
(-76.96457 -1.5140738 5.762275)
(-71.053779 2.7332395 4.5994731)
(-78.066787 4.6300608 7.1966519)
(-69.384385 -2.6487147 3.9246022)
(-75.563706 -2.2638551 6.4690067)
(-70.2073 2.1480849 5.256593)
(-76.710907 3.8652561 7.9960428)
(-68.219777 -3.3141933 4.4154628)
(-73.807211 -3.0349287 7.0702889)
(-69.038131 1.5254028 5.8945543)
(-74.982598 3.0910293 8.7022552)
(-66.729388 -3.9586303 4.7525859)
(-71.675949 -3.758477 7.4222985)
(-67.522807 0.9192996 6.3239195)
(-72.86926 2.3368326 9.1139249)
(-64.93053 -4.4686787 4.8924202)
(-69.202617 -4.3464334 7.4867004)
(-65.661678 0.39559921 6.5239166)
(-70.392162 1.66886 9.1924443)
(-63.095715 -4.9113022 4.7155347)
(-66.760354 -4.824749 7.1434321)
(-63.747399 -0.029136017 6.3468336)
(-67.914711 1.1539289 8.8262675)
(-61.462545 -5.121988 4.3688603)
(-64.626999 -5.0587309 6.5842333)
(-62.045688 -0.25064797 5.9623723)
(-65.741163 0.87917328 8.2104782)
(-60.013319 -5.2650804 3.8492248)
(-62.771954 -5.1997824 5.8271978)
(-60.552683 -0.36487374 5.3820615)
(-63.860511 0.76234416 7.385382)
(-58.781395 -5.2687749 3.3040402)
(-61.194909 -5.2125241 5.0058523)
(-59.288138 -0.32923967 4.7678512)
(-62.28534 0.82562839 6.4840851)
(-57.763948 -5.1699242 2.7343224)
(-59.898239 -5.1207668 4.1378522)
(-58.219956 -0.20555726 4.0793237)
(-60.970688 1.0025438 5.4870112)
(-56.953388 -5.1516897 2.2060504)
(-58.865337 -5.1181481 3.2765078)
(-57.387041 -0.14128452 3.3656691)
(-59.936506 1.096491 4.4217445)
(-56.369466 -5.2075142 1.6315627)
(-58.112827 -5.1997323 2.3648442)
(-56.790242 -0.23713365 2.595618)
(-59.156743 0.98130408 3.2735657)
(-56.035427 -5.4138465 1.2206862)
(-57.670077 -5.4488474 1.6304316)
(-56.476319 -0.48788688 1.940624)
(-58.707968 0.66763991 2.2629554)
(-55.879218 -5.6493959 0.90225044)
(-57.439169 -5.7433303 1.0708974)
(-56.339124 -0.77892391 1.4602434)
(-58.500871 0.29538128 1.5059524)
(-55.830599 -5.8881535 0.71481396)
(-57.352608 -6.0349385 0.69996371)
(-56.296308 -1.0673394 1.129144)
(-58.443973 -0.067212941 0.9664055)
(-55.84329 -6.1218591 0.56888149)
(-57.319553 -6.3093764 0.45185387)
(-56.316414 -1.3494009 0.89638284)
(-58.443798 -0.41098893 0.59304724)
(-55.898225 -6.3293866 0.47909678)
(-57.293632 -6.5454513 0.28945925)
(-56.383561 -1.5980264 0.7332053)
(-58.377651 -0.71404956 0.35440985)
(-55.975749 -6.5094839 0.39846651)
(-57.264988 -6.7474847 0.19368463)
(-56.482078 -1.820642 0.60170493)
(-58.223642 -0.96971028 0.22691966)
(-56.059278 -6.6674577 0.35426147)
(-57.245976 -6.9198676 0.11337408)
(-56.56629 -2.0105623 0.49890777)
(-58.238167 -1.1775438 0.1710985)
(-56.107673 -6.8060236 0.30500345)
(-57.247207 -7.0667618 0.10820706)
(-56.589675 -2.1740221 0.42439781)
(-58.173365 -1.3420754 0.14537644)
(-55.566392 -7.004051 0.2750324)
(-56.18164 -7.2944209 0.088141006)
(-55.774504 -2.3433238 0.35710841)
(-56.977058 -1.4900066 0.13399221)
(-52.749186 -7.4007016 0.207187)
(-52.66233 -7.7222909 0.046054966)
(-52.472402 -2.5492636 0.25907694)
(-53.159587 -1.63831 0.072795373)
(-47.101383 -7.8181303 0.11539353)
(-46.910271 -8.0755107 0.0058172332)
(-46.564542 -2.7134252 0.14629337)
(-47.371503 -1.7250166 0.027861573)
(-39.574013 -7.8066465 0.044376137)
(-39.608434 -7.9620202 -0.020938991)
(-39.080656 -2.6944538 0.062791058)
(-40.260022 -1.6961818 0.0035715131)
(-28.614921 -6.7266915 0.039546076)
(-28.849178 -6.8047869 0.0067658926)
(-28.330456 -2.2920667 0.041445367)
(-29.758839 -1.4915313 0.015667184)
(-11.574044 -3.2847802 -0.11913384)
(-11.748911 -3.3458254 -0.11412496)
(-11.548421 -1.1147077 -0.086290423)
(-12.503319 -0.87863142 -0.08217827)
(-29.235281 8.5024523 0.47589703)
(-41.687443 13.311724 0.93299727)
(-26.536882 10.863847 0.54520373)
(-36.029026 17.303363 1.040867)
(-24.466661 10.950767 0.4564145)
(-30.136904 18.421436 0.91072296)
(-22.935991 10.873781 0.38188137)
(-26.855429 18.467473 0.81294375)
(-21.857957 10.779821 0.32866136)
(-24.695073 18.216604 0.74315415)
(-21.052256 10.709729 0.29554172)
(-23.160142 17.927212 0.70345568)
(-20.411167 10.652888 0.27623812)
(-21.959656 17.618675 0.68173663)
(-51.169793 10.829539 0.30058147)
(-63.42928 16.148585 0.84216915)
(-48.624369 13.096295 0.36401048)
(-58.092624 19.915808 0.85398064)
(-46.504537 13.155935 0.37344718)
(-52.714967 20.365035 0.86614549)
(-44.746045 13.125814 0.37652865)
(-49.591316 20.264651 0.90447517)
(-43.416387 13.096145 0.36596711)
(-47.46827 20.031913 0.91342938)
(-42.378165 13.090086 0.35218253)
(-45.886256 19.818034 0.91104256)
(-41.536132 13.08865 0.33962231)
(-44.616054 19.601174 0.90290297)
(-61.678263 10.218645 0.82900241)
(-72.718352 15.148975 1.6841388)
(-59.351931 12.305088 0.99346799)
(-67.996671 18.679962 1.7729503)
(-57.511528 12.400968 1.001307)
(-63.341296 19.041175 1.8647779)
(-55.982557 12.3847 1.0011275)
(-60.64051 18.923786 1.9655081)
(-54.805826 12.354666 0.98840971)
(-58.847096 18.699934 2.0068975)
(-53.85926 12.340659 0.97335293)
(-57.489551 18.491099 2.026254)
(-53.065342 12.332408 0.96166381)
(-56.356933 18.283307 2.0320003)
(-67.224955 9.4549113 1.1805263)
(-76.930167 14.153361 2.2072131)
(-64.604175 11.608141 1.3635946)
(-72.043517 17.800351 2.2940351)
(-62.964553 11.737895 1.3717023)
(-67.753382 18.215432 2.3714163)
(-61.738806 11.70049 1.372923)
(-65.337659 18.11209 2.429508)
(-60.841528 11.640691 1.3646526)
(-63.842174 17.881551 2.4415096)
(-60.135239 11.59994 1.3558685)
(-62.804026 17.671255 2.4544362)
(-59.54109 11.571449 1.3505667)
(-61.920303 17.470858 2.4700498)
(-69.963755 8.9892316 1.6182146)
(-78.59885 13.616918 2.8905442)
(-66.898353 11.295165 1.8833105)
(-73.412072 17.508211 3.0293574)
(-65.40304 11.464839 1.9203579)
(-69.229988 18.048584 3.1679238)
(-64.397359 11.413917 1.9420507)
(-66.872009 17.986981 3.2562147)
(-63.734739 11.315551 1.9477086)
(-65.365837 17.745025 3.2923558)
(-63.25736 11.223111 1.9461772)
(-64.320046 17.502936 3.3139059)
(-62.87779 11.144262 1.9438947)
(-63.514238 17.262556 3.3287253)
(-70.774458 8.7554496 2.0624161)
(-78.857309 13.306838 3.5796214)
(-67.572652 11.177178 2.3674252)
(-73.587067 17.388737 3.7087952)
(-66.158427 11.37855 2.3891126)
(-69.427549 18.079437 3.8346331)
(-65.23173 11.335874 2.3960802)
(-67.11999 18.107645 3.9082631)
(-64.650386 11.239654 2.3935649)
(-65.677207 17.910215 3.9468436)
(-64.260936 11.146372 2.3890174)
(-64.689302 17.69282 3.9745707)
(-63.945343 11.068494 2.3887065)
(-63.968895 17.46073 3.9948264)
(-70.847103 8.5714458 2.5922848)
(-78.673492 13.016739 4.3740764)
(-67.696452 11.121439 2.9927269)
(-73.406536 17.308589 4.5966111)
(-66.280421 11.379355 3.0381728)
(-69.203503 18.178207 4.7345482)
(-65.347936 11.354695 3.0494622)
(-66.906829 18.300249 4.8478419)
(-64.772133 11.265882 3.0450232)
(-65.502167 18.150458 4.8968162)
(-64.382204 11.180449 3.0377216)
(-64.546329 17.957631 4.9165373)
(-64.038003 11.10963 3.031919)
(-63.859962 17.744211 4.919527)
(-70.796325 8.3427808 3.1630808)
(-78.339377 12.649903 5.2086643)
(-67.739111 11.01846 3.6136879)
(-73.157556 17.157598 5.482027)
(-66.313407 11.341136 3.6624826)
(-68.949444 18.209798 5.6271034)
(-65.357043 11.349409 3.678396)
(-66.67561 18.444865 5.7389466)
(-64.755504 11.285091 3.678841)
(-65.298976 18.368583 5.7858311)
(-64.339963 11.214511 3.6739536)
(-64.365967 18.220228 5.8009516)
(-64.017686 11.153265 3.6674889)
(-63.693236 18.038335 5.7967993)
(-70.6545 8.0582364 3.9257501)
(-77.858476 12.197568 6.2373691)
(-67.701668 10.869992 4.4532465)
(-72.788156 16.926798 6.6229699)
(-66.26695 11.259397 4.5079921)
(-68.594041 18.19594 6.770522)
(-65.292755 11.301763 4.5245158)
(-66.381365 18.552764 6.8827159)
(-64.678897 11.260546 4.5228596)
(-65.013732 18.544517 6.91828)
(-64.254056 11.206919 4.5145296)
(-64.12966 18.433865 6.916335)
(-63.927641 11.159777 4.5052706)
(-63.472434 18.283947 6.8959635)
(-70.36251 7.7028743 4.6110247)
(-77.19616 11.646623 7.1571731)
(-67.524734 10.656285 5.2071509)
(-72.299464 16.565123 7.6536223)
(-66.09571 11.118748 5.2852069)
(-68.201506 18.068054 7.8539641)
(-65.12009 11.20112 5.3149963)
(-65.991289 18.576921 7.975526)
(-64.497308 11.185288 5.3187262)
(-64.624304 18.651019 8.0039545)
(-64.066397 11.150867 5.3128511)
(-63.795762 18.582727 7.9883703)
(-63.737858 11.119844 5.3047222)
(-63.155426 18.469327 7.9557697)
(-69.853072 7.2828678 5.4662463)
(-76.274865 11.011262 8.1928398)
(-67.142848 10.370106 6.1303516)
(-71.543938 16.090879 8.8191997)
(-65.727733 10.894169 6.2210344)
(-67.516897 17.785395 9.1104616)
(-64.752184 11.009912 6.2525816)
(-65.363703 18.416873 9.233357)
(-64.127519 11.015875 6.2550105)
(-64.020569 18.563167 9.2413603)
(-63.694636 10.997099 6.2470079)
(-63.252223 18.533312 9.2034399)
(-63.365491 10.980255 6.2371885)
(-62.658045 18.448824 9.1517729)
(-69.099467 6.7707922 6.2109087)
(-75.049498 10.264514 9.0626775)
(-66.525294 9.9998415 6.9268508)
(-70.493913 15.51116 9.8171302)
(-65.125463 10.589028 7.0430434)
(-66.5301 17.372228 10.198372)
(-64.144994 10.739097 7.0831513)
(-64.449267 18.093604 10.338086)
(-63.517374 10.770825 7.0889348)
(-63.203761 18.290308 10.334152)
(-63.087256 10.770904 7.0822836)
(-62.488655 18.295329 10.282045)
(-62.764979 10.769634 7.0727104)
(-61.942738 18.240916 10.218419)
(-67.981253 6.2025305 6.92785)
(-73.446464 9.4720427 9.813508)
(-65.518932 9.5296718 7.6543838)
(-69.058324 14.753108 10.625394)
(-64.155011 10.159269 7.7957264)
(-65.120823 16.722794 11.090608)
(-63.180508 10.327909 7.8440212)
(-63.106989 17.485964 11.241622)
(-62.568029 10.377196 7.851751)
(-62.083227 17.696487 11.227833)
(-62.161961 10.390813 7.8434019)
(-61.409284 17.725639 11.167324)
(-61.86204 10.400721 7.8305362)
(-60.930311 17.696474 11.095329)
(-66.534308 5.5990061 7.4378709)
(-71.461346 8.646082 10.274164)
(-64.192783 8.9546266 8.1309423)
(-67.236389 13.884612 11.075779)
(-62.836451 9.6177005 8.252585)
(-63.420994 15.881481 11.563225)
(-61.877861 9.8099711 8.2942203)
(-61.613357 16.646414 11.694856)
(-61.295658 9.8751556 8.2993637)
(-60.666068 16.866454 11.673747)
(-60.918973 9.8976899 8.2879991)
(-60.058883 16.910265 11.610187)
(-60.648405 9.9126031 8.2722617)
(-59.642407 16.896058 11.535782)
(-64.742135 4.9842137 7.642294)
(-69.13055 7.8089254 10.322332)
(-62.54801 8.2698607 8.2797989)
(-65.099987 12.861675 11.071002)
(-61.199876 8.9541192 8.4136739)
(-61.463832 14.827805 11.553815)
(-60.267872 9.1597751 8.45753)
(-59.824878 15.569226 11.675004)
(-59.718955 9.2319519 8.4627275)
(-58.943769 15.784709 11.652494)
(-59.373539 9.2575185 8.4509977)
(-58.404566 15.832414 11.59066)
(-59.135356 9.2754832 8.435283)
(-58.047246 15.828225 11.519767)
(-62.865465 4.4253188 7.4262732)
(-66.748875 7.0939759 9.9195431)
(-60.818779 7.5853456 7.9795321)
(-62.895321 11.889473 10.6013)
(-59.505518 8.2802127 8.109239)
(-59.509987 13.76541 11.035963)
(-58.624475 8.4964221 8.1520525)
(-57.984066 14.458684 11.139183)
(-58.115512 8.5707937 8.1556628)
(-57.174787 14.657653 11.117868)
(-57.805291 8.5976305 8.1433566)
(-56.691136 14.704508 11.063286)
(-57.599741 8.6170962 8.1274671)
(-56.378624 14.707688 11.001654)
(-61.194114 4.0442152 6.977755)
(-64.641751 6.6248363 9.2419233)
(-59.29006 7.0290717 7.4498037)
(-60.928416 11.13671 9.8571327)
(-58.024088 7.7149679 7.5827921)
(-57.797717 12.892366 10.239364)
(-57.20099 7.9365933 7.6290458)
(-56.388599 13.526058 10.323378)
(-56.733601 8.0117853 7.6354299)
(-55.646633 13.701083 10.303104)
(-56.455915 8.0393839 7.6255605)
(-55.212373 13.742083 10.256513)
(-56.278334 8.059633 7.6113576)
(-54.938595 13.748841 10.205416)
(-59.730526 3.7949514 6.3075046)
(-62.803205 6.351463 8.3392577)
(-57.961328 6.6116421 6.7021161)
(-59.237776 10.585398 8.8962956)
(-56.755934 7.2894642 6.8378751)
(-56.356862 12.206749 9.2311238)
(-55.993773 7.5167081 6.8890463)
(-55.057082 12.778566 9.3018193)
(-55.566573 7.5948965 6.9001454)
(-54.375913 12.930182 9.2862624)
(-55.317329 7.6250274 6.8943099)
(-53.987438 12.966358 9.2495384)
(-55.162233 7.6457702 6.8826592)
(-53.748874 12.973972 9.2096203)
(-58.481833 3.6268223 5.5332605)
(-61.225123 6.1965035 7.271212)
(-56.828395 6.2271978 5.880848)
(-57.829595 10.114054 7.7818899)
(-55.707143 6.890392 6.0472304)
(-55.192554 11.596483 8.1060639)
(-55.014381 7.1234897 6.1141333)
(-53.99147 12.116519 8.1768302)
(-54.627877 7.2111481 6.133518)
(-53.364067 12.259943 8.1700927)
(-54.403017 7.2494687 6.1325342)
(-53.013302 12.299992 8.1427936)
(-54.26311 7.2705264 6.1232592)
(-52.800529 12.307685 8.1119263)
(-57.451042 3.5386654 4.7086713)
(-59.883792 6.1460938 6.1293912)
(-55.90244 5.9365318 4.9848411)
(-56.687243 9.778032 6.5340838)
(-54.868736 6.5856124 5.1269197)
(-54.299174 11.125994 6.8088415)
(-54.243563 6.8291624 5.1909815)
(-53.181772 11.601357 6.8750162)
(-53.892473 6.9266941 5.2128854)
(-52.60095 11.742475 6.8758463)
(-53.686881 6.9728453 5.2146464)
(-52.279275 11.787004 6.8565093)
(-53.557563 6.9995375 5.2072347)
(-52.0862 11.799529 6.8322336)
(-56.675622 3.4027699 3.8533979)
(-58.855256 6.0108056 4.899284)
(-55.252505 5.6163208 4.0994889)
(-55.858573 9.3873957 5.2330521)
(-54.289773 6.2534364 4.2355174)
(-53.688194 10.640452 5.4818652)
(-53.709772 6.506379 4.299627)
(-52.65207 11.080132 5.5554355)
(-53.381376 6.6153853 4.3255997)
(-52.137313 11.224929 5.5683147)
(-53.187667 6.6700497 4.331757)
(-51.824801 11.278799 5.5593828)
(-53.063962 6.7022984 4.3282222)
(-51.656489 11.296845 5.542737)
(-56.162559 3.1989145 2.9810556)
(-58.113105 5.7542421 3.6154827)
(-54.86281 5.2956916 3.1654662)
(-55.294843 8.9513468 3.8447924)
(-53.94837 5.9343246 3.2651743)
(-53.326183 10.159998 4.0333458)
(-53.390564 6.2051823 3.3173827)
(-52.394685 10.59805 4.1069537)
(-53.076534 6.3261841 3.340237)
(-51.92821 10.749312 4.1279998)
(-52.899454 6.3874548 3.3465962)
(-51.666648 10.808668 4.1267844)
(-52.789266 6.425399 3.3441963)
(-51.522361 10.834558 4.11511)
(-55.936216 2.946521 2.2191617)
(-57.771014 5.3924583 2.4971829)
(-54.753889 4.9946581 2.3721449)
(-55.084304 8.4649373 2.6731661)
(-53.880197 5.632197 2.4533574)
(-53.24385 9.6582688 2.835107)
(-53.329826 5.9153392 2.5012317)
(-52.419408 10.104552 2.9123006)
(-53.027387 6.0444993 2.5237268)
(-52.019882 10.261199 2.942121)
(-52.876816 6.1085994 2.532327)
(-51.786996 10.328073 2.9502545)
(-52.77794 6.1465757 2.5333856)
(-51.661329 10.358088 2.9469738)
(-55.871949 2.6246272 1.6343293)
(-57.720891 4.9369261 1.646162)
(-54.790098 4.6473932 1.7451454)
(-55.154796 7.9303236 1.7708585)
(-53.974609 5.2865424 1.802968)
(-53.398098 9.1314577 1.9180348)
(-53.45521 5.5739662 1.8433114)
(-52.62715 9.5995949 1.9907059)
(-53.171834 5.7067506 1.8627187)
(-52.229672 9.7671453 2.0226902)
(-53.021859 5.7727853 1.8716313)
(-52.028637 9.8377481 2.0354195)
(-52.933445 5.8101721 1.8745648)
(-51.912831 9.8703039 2.0375997)
(-55.879757 2.3233153 1.2321118)
(-57.832421 4.5180961 1.0526121)
(-54.868465 4.3658978 1.3167337)
(-55.385819 7.4930498 1.1567364)
(-54.105305 5.0177666 1.3600335)
(-53.687223 8.715563 1.3033667)
(-53.620722 5.310862 1.399703)
(-52.95218 9.196093 1.3796815)
(-53.357722 5.4463944 1.4205355)
(-52.563695 9.3724334 1.4155086)
(-53.214954 5.5127713 1.4319731)
(-52.360171 9.446796 1.4340031)
(-53.1364 5.5492604 1.4378629)
(-52.250705 9.480467 1.4427559)
(-55.934885 2.0220792 0.9358641)
(-58.006593 4.1182207 0.61052637)
(-54.964795 4.0948086 0.99126955)
(-55.671359 7.0867901 0.7068511)
(-54.238151 4.7642414 1.0182555)
(-54.019364 8.3384217 0.86658425)
(-53.780506 5.0649635 1.0565583)
(-53.276054 8.8362884 0.94145167)
(-53.532993 5.2031794 1.0783474)
(-52.894712 9.0188522 0.98285613)
(-53.399932 5.2702409 1.092053)
(-52.691857 9.0960905 1.0081631)
(-53.327272 5.3064414 1.1010009)
(-52.581302 9.1313094 1.0247465)
(-56.025837 1.750637 0.72988358)
(-58.085473 3.7663915 0.34401991)
(-55.066629 3.854853 0.76934535)
(-55.871197 6.7645238 0.43407398)
(-54.352836 4.5458282 0.78783246)
(-54.353091 8.0358627 0.60453117)
(-53.919578 4.8566598 0.8232309)
(-53.592265 8.5535925 0.6753544)
(-53.682704 4.9985953 0.84490855)
(-53.175274 8.74814 0.72107295)
(-53.552721 5.0672918 0.86052512)
(-52.973678 8.8290774 0.75178857)
(-53.479869 5.1044262 0.87241139)
(-52.858469 8.8663657 0.77455906)
(-56.114482 1.5056628 0.56901127)
(-58.165258 3.4677378 0.15385669)
(-55.148987 3.6458769 0.5882871)
(-56.06502 6.5042464 0.22042203)
(-54.43666 4.3571786 0.602887)
(-54.654838 7.7808138 0.3807131)
(-54.02208 4.674884 0.63106724)
(-53.876994 8.3038938 0.46701357)
(-53.794486 4.8199355 0.65212722)
(-53.440142 8.5057565 0.52120776)
(-53.667866 4.8901273 0.67039986)
(-53.225913 8.5901358 0.56128754)
(-53.594711 4.9281573 0.68598618)
(-53.108272 8.628976 0.59319776)
(-56.219617 1.2942203 0.45146017)
(-58.24847 3.2189518 0.072007037)
(-55.229336 3.4638029 0.46473085)
(-56.260794 6.3050555 0.12299655)
(-54.49653 4.2000627 0.48525586)
(-54.906757 7.5914733 0.28559409)
(-54.083982 4.5289411 0.50664169)
(-54.119028 8.1077758 0.36897881)
(-53.86024 4.6804113 0.52285882)
(-53.679374 8.3109173 0.42281861)
(-53.738642 4.7537104 0.54086543)
(-53.43093 8.3967473 0.465657)
(-53.668867 4.7929275 0.55914544)
(-53.317013 8.434273 0.50281132)
(-56.248367 1.1191656 0.35976602)
(-58.249559 3.0216039 0.014171665)
(-55.253805 3.318721 0.35773873)
(-56.308376 6.1487954 0.037877837)
(-54.487509 4.0742666 0.37384873)
(-54.859455 7.4564305 0.20861565)
(-54.041829 4.4099988 0.38572848)
(-53.993005 7.9683276 0.29635153)
(-53.794462 4.566802 0.39793672)
(-53.617534 8.1611451 0.35118422)
(-53.676695 4.6465765 0.41641905)
(-53.390351 8.2456077 0.39464211)
(-53.589135 4.6916713 0.43806533)
(-53.257664 8.2879485 0.43463558)
(-55.429486 0.995605 0.2845408)
(-57.312741 2.9171585 -0.0070555433)
(-54.639661 3.2406692 0.27510656)
(-55.458287 6.093011 0.0083424543)
(-53.854322 4.0166025 0.29122867)
(-53.877673 7.4416205 0.17483179)
(-53.346168 4.3705974 0.29756691)
(-53.027691 7.9753099 0.25023717)
(-53.010111 4.5451946 0.30215606)
(-52.480095 8.1927615 0.29638845)
(-52.801636 4.640225 0.31510838)
(-52.127785 8.3016166 0.33623915)
(-52.660488 4.6976303 0.33483275)
(-51.874397 8.367439 0.37531899)
(-52.132453 0.97519447 0.18838882)
(-53.999912 2.9919234 -0.03980944)
(-51.787887 3.3181804 0.16665912)
(-52.766014 6.2592428 -0.034461791)
(-51.24749 4.1092117 0.17280327)
(-51.176228 7.6631648 0.11110071)
(-50.608508 4.4869794 0.17530192)
(-49.998371 8.262042 0.18996924)
(-50.097334 4.6843777 0.17449715)
(-49.139863 8.5364958 0.23443351)
(-49.702085 4.8035123 0.18260597)
(-48.513515 8.6951686 0.27317078)
(-49.388542 4.8876954 0.19954966)
(-48.030017 8.8049573 0.31135904)
(-46.285281 1.080461 0.091267647)
(-48.698257 3.1984714 -0.056874598)
(-46.348223 3.5644809 0.079116178)
(-48.061836 6.6285883 -0.044547958)
(-46.175627 4.3531548 0.088709289)
(-46.622451 8.0948446 0.083204034)
(-45.534602 4.7426242 0.093692812)
(-45.192606 8.7713744 0.15102663)
(-44.853685 4.9682851 0.096240807)
(-44.030849 9.1182488 0.19212661)
(-44.27181 5.1199914 0.10666952)
(-43.150279 9.3387466 0.22716723)
(-43.793649 5.2358506 0.12151663)
(-42.465188 9.499684 0.259866)
(-38.872689 1.2609087 0.024239154)
(-41.93526 3.3714275 -0.056762038)
(-39.071122 3.8615918 0.022058576)
(-41.540469 7.0113613 -0.044943402)
(-39.083683 4.6533961 0.02721008)
(-40.078176 8.6075678 0.039316553)
(-38.464184 5.0461004 0.029335931)
(-38.392746 9.3834724 0.08586275)
(-37.677813 5.2909638 0.029267713)
(-36.969122 9.8077045 0.1129906)
(-36.986877 5.4637831 0.037566567)
(-35.913731 10.080531 0.13422706)
(-36.432309 5.5955987 0.050695566)
(-35.128341 10.275471 0.15414112)
(-28.212941 1.3859617 0.010425249)
(-31.662851 3.1658079 -0.019368664)
(-28.318857 3.9016739 0.020313099)
(-31.200555 6.8459779 -0.010470548)
(-28.246825 4.6784561 0.025498891)
(-29.575941 8.6102623 0.021261598)
(-27.640019 5.0469451 0.020548363)
(-27.775604 9.4557421 0.037197359)
(-26.872928 5.2748198 0.015783625)
(-26.31286 9.9088892 0.044376583)
(-26.217447 5.4388917 0.01939931)
(-25.292568 10.182917 0.046201831)
(-25.717851 5.5638895 0.027778897)
(-24.569854 10.369102 0.04971478)
(-11.610705 0.89635263 -0.082941624)
(-14.188048 1.6105914 -0.10200143)
(-11.629265 2.4238567 -0.063912816)
(-13.959668 4.0001162 -0.098568759)
(-11.47428 2.9566909 -0.058351868)
(-12.788886 5.3448261 -0.079853973)
(-11.092679 3.1741619 -0.054163696)
(-11.685503 5.9250778 -0.074339671)
(-10.654608 3.2667432 -0.05092411)
(-10.834546 6.1900835 -0.066817926)
(-10.290791 3.3232816 -0.044903302)
(-10.264619 6.3261883 -0.063203783)
(-10.021177 3.3717164 -0.036484651)
(-9.8673985 6.402627 -0.061468754)
(-19.850232 10.5864 0.26484251)
(-20.90805 17.280837 0.67030153)
(-19.412396 10.504747 0.25626247)
(-20.07982 16.924569 0.66235698)
(-19.023738 10.422922 0.25980146)
(-19.361846 16.59741 0.67673127)
(-18.630642 10.294858 0.27467931)
(-18.613106 16.150677 0.71443992)
(-18.11154 10.023785 0.31048852)
(-17.595719 15.263789 0.77876437)
(-17.205399 9.3214119 0.3715828)
(-15.844163 12.966502 0.80860702)
(-40.799475 13.06422 0.32880271)
(-43.498295 19.351627 0.89197816)
(-40.238271 13.015102 0.3220803)
(-42.630056 19.087433 0.88159158)
(-39.742648 12.971987 0.3214186)
(-41.872525 18.866221 0.88029409)
(-39.273548 12.868886 0.32224364)
(-41.116094 18.52393 0.88357597)
(-38.704065 12.572864 0.32040951)
(-40.121183 17.73263 0.88386354)
(-37.757453 11.650346 0.33419307)
(-38.37004 15.442512 0.90154175)
(-52.346659 12.307835 0.95344982)
(-55.33844 18.051005 2.0370897)
(-51.780991 12.256522 0.94979519)
(-54.524412 17.792843 2.0385774)
(-51.267643 12.207101 0.94744169)
(-53.806024 17.561403 2.0362669)
(-50.781142 12.115973 0.94560377)
(-53.087615 17.243955 2.0311723)
(-50.218208 11.887544 0.93800288)
(-52.160826 16.596091 2.0115584)
(-49.312456 11.16285 0.92910724)
(-50.504912 14.742957 1.9720978)
(-58.98071 11.53408 1.3495379)
(-61.148283 17.253855 2.4913193)
(-58.519408 11.487173 1.3546135)
(-60.502652 17.02814 2.512219)
(-58.09364 11.444694 1.3653352)
(-59.94426 16.824277 2.5403762)
(-57.665276 11.36402 1.3794288)
(-59.354325 16.532526 2.5765668)
(-57.139674 11.152281 1.3897429)
(-58.520425 15.9152 2.6109066)
(-56.262312 10.4995 1.3862069)
(-56.921094 14.191493 2.6209823)
(-62.492666 11.065493 1.9432047)
(-62.835878 17.00408 3.3385863)
(-62.148239 10.990678 1.9421538)
(-62.319446 16.748812 3.3429237)
(-61.832603 10.924507 1.9403759)
(-61.842848 16.52117 3.3531459)
(-61.487807 10.835279 1.9385021)
(-61.359002 16.22033 3.3644364)
(-61.022727 10.647646 1.9330473)
(-60.736941 15.629584 3.3677844)
(-60.186683 10.085425 1.9211525)
(-59.460775 14.029081 3.3566043)
(-63.63125 10.984903 2.3890121)
(-63.43646 17.208298 4.0094321)
(-63.418365 10.899932 2.3884439)
(-62.92389 16.967682 4.0204439)
(-63.176873 10.82734 2.3896838)
(-62.488298 16.749151 4.0343177)
(-62.859754 10.740021 2.3940917)
(-62.034232 16.455794 4.0456359)
(-62.368401 10.558 2.396901)
(-61.397551 15.873838 4.0468388)
(-61.469588 10.018949 2.3867031)
(-60.173 14.300036 4.0178432)
(-63.750672 11.034978 3.0243487)
(-63.359118 17.512654 4.9156882)
(-63.491491 10.961641 3.0181155)
(-62.830698 17.293432 4.9104528)
(-63.251291 10.894406 3.0137337)
(-62.408897 17.091784 4.9059854)
(-62.959583 10.809326 3.0107445)
(-61.967961 16.819671 4.8975271)
(-62.500487 10.639283 3.0061613)
(-61.332926 16.275481 4.874693)
(-61.565487 10.139413 2.9914696)
(-60.091686 14.76408 4.8076429)
(-63.721237 11.089836 3.6591469)
(-63.203456 17.83464 5.7858881)
(-63.458987 11.026867 3.651102)
(-62.667483 17.63861 5.7735274)
(-63.214153 10.968494 3.6437705)
(-62.25501 17.454827 5.7595443)
(-62.915506 10.893584 3.6389505)
(-61.814916 17.203644 5.7413346)
(-62.444708 10.739472 3.63412)
(-61.17303 16.692651 5.7049494)
(-61.484536 10.280758 3.6208073)
(-59.912358 15.244284 5.6046716)
(-63.627439 11.10942 4.4939066)
(-62.960682 18.110819 6.8708844)
(-63.360174 11.058038 4.4824973)
(-62.454905 17.936219 6.844969)
(-63.110792 11.010176 4.4717352)
(-62.054071 17.770164 6.8181113)
(-62.807781 10.947665 4.4626913)
(-61.619396 17.543079 6.7874364)
(-62.331281 10.815149 4.4521275)
(-60.978488 17.072562 6.7325312)
(-61.355891 10.410293 4.4294054)
(-59.710372 15.705876 6.5869656)
(-63.434106 11.084539 5.2941384)
(-62.620204 18.32977 7.9189803)
(-63.161674 11.046872 5.282895)
(-62.169618 18.178495 7.8818289)
(-62.908858 11.01151 5.2722518)
(-61.780496 18.032898 7.8448168)
(-62.603918 10.96346 5.263637)
(-61.355234 17.833429 7.8058968)
(-62.126999 10.855522 5.25479)
(-60.72215 17.408052 7.7415617)
(-61.146958 10.510242 5.2375872)
(-59.456287 16.139239 7.5762814)
(-63.060242 10.959305 6.2252341)
(-62.140914 18.340398 9.0985293)
(-62.786341 10.934601 6.2120124)
(-61.715523 18.216844 9.0478591)
(-62.533178 10.910914 6.1987645)
(-61.349831 18.093554 8.9979288)
(-62.233006 10.876545 6.1866395)
(-60.940062 17.923637 8.9458005)
(-61.768305 10.79274 6.1732466)
(-60.325967 17.551677 8.8635839)
(-60.808088 10.512191 6.1503641)
(-59.079594 16.411283 8.661956)
(-62.470355 10.763106 7.0604183)
(-61.469887 18.162213 10.154259)
(-62.210347 10.750584 7.0459096)
(-61.065239 18.067719 10.094668)
(-61.971708 10.737148 7.0305778)
(-60.727304 17.969025 10.034993)
(-61.687729 10.715528 7.0170482)
(-60.340093 17.830603 9.9736804)
(-61.241361 10.656369 7.0048376)
(-59.747741 17.517758 9.8830332)
(-60.309639 10.442746 6.9894832)
(-58.522335 16.52476 9.6719583)
(-61.589231 10.404871 7.8140689)
(-60.512408 17.641949 11.021796)
(-61.348159 10.402256 7.796096)
(-60.148153 17.573038 10.954796)
(-61.126249 10.397729 7.7778649)
(-59.831569 17.499338 10.887349)
(-60.861339 10.386985 7.7631857)
(-59.46981 17.393309 10.819521)
(-60.443977 10.348227 7.7518211)
(-58.90637 17.142016 10.725167)
(-59.569671 10.192969 7.7393865)
(-57.717101 16.310565 10.516341)
(-60.407917 9.9252637 8.2529054)
(-59.286006 16.861824 11.458703)
(-60.192462 9.9296689 8.2343915)
(-58.969286 16.811649 11.390016)
(-59.994693 9.930137 8.2158351)
(-58.690596 16.75728 11.319918)
(-59.757971 9.9259368 8.202324)
(-58.354269 16.678319 11.251014)
(-59.382792 9.9000394 8.1936074)
(-57.827417 16.480897 11.160919)
(-58.595384 9.7891937 8.1872494)
(-56.695122 15.803022 10.974696)
(-58.929631 9.2915649 8.4159993)
(-57.75165 15.80682 11.445395)
(-58.746372 9.2982081 8.3961781)
(-57.491145 15.769147 11.378047)
(-58.579244 9.3004603 8.3775759)
(-57.260426 15.72753 11.310459)
(-58.378369 9.2992325 8.3641936)
(-56.972514 15.668162 11.245409)
(-58.056293 9.2810747 8.3552212)
(-56.485226 15.517637 11.164513)
(-57.380255 9.202569 8.3480282)
(-55.42569 14.98734 11.006697)
(-57.426095 8.6322637 8.1070182)
(-56.124201 14.693447 10.93445)
(-57.273092 8.638303 8.0858737)
(-55.903817 14.665557 10.873386)
(-57.133295 8.6408486 8.0671356)
(-55.70669 14.634979 10.813586)
(-56.963074 8.6405592 8.0538137)
(-55.458585 14.590446 10.757465)
(-56.685867 8.6272092 8.044903)
(-55.032307 14.474491 10.690358)
(-56.106237 8.5712835 8.0388147)
(-54.081882 14.062011 10.564563)
(-56.130797 8.073518 7.5908531)
(-54.716735 13.738452 10.147083)
(-56.00159 8.0790258 7.5704228)
(-54.523517 13.717255 10.094785)
(-55.883045 8.0819962 7.5524836)
(-54.346889 13.69505 10.044078)
(-55.736549 8.0826835 7.5398388)
(-54.123953 13.662298 9.9969757)
(-55.494035 8.0733629 7.531748)
(-53.744173 13.571748 9.9417564)
(-54.989218 8.0339486 7.5280036)
(-52.914432 13.243565 9.8424634)
(-55.035761 7.6593964 6.8631777)
(-53.554862 12.964577 9.1612382)
(-54.924877 7.6657681 6.8444672)
(-53.383961 12.947988 9.1189315)
(-54.822639 7.6702017 6.8276045)
(-53.224418 12.931521 9.0779063)
(-54.694571 7.6730822 6.8158886)
(-53.021397 12.907455 9.0399788)
(-54.479528 7.6694635 6.8097663)
(-52.677911 12.837217 8.9960812)
(-54.03405 7.6466873 6.8121379)
(-51.942702 12.575268 8.9196298)
(-54.153058 7.2868941 6.1083838)
(-52.630525 12.301596 8.0767823)
(-54.055281 7.296697 6.0925904)
(-52.479368 12.289408 8.0447976)
(-53.964742 7.3045154 6.0780547)
(-52.336809 12.278407 8.0141209)
(-53.850182 7.3120887 6.0685206)
(-52.152268 12.263041 7.9862303)
(-53.656184 7.3183862 6.0664015)
(-51.838322 12.214598 7.9554225)
(-53.255754 7.3170833 6.0783919)