/*--------------------------------*- C++ -*----------------------------------*\
| =========                 |                                                 |
| \\      /  F ield         | OpenFOAM: The Open Source CFD Toolbox           |
|  \\    /   O peration     | Version:  2212                                  |
|   \\  /    A nd           | Website:  www.openfoam.com                      |
|    \\/     M anipulation  |                                                 |
\*---------------------------------------------------------------------------*/
FoamFile
{
    version     2.0;
    format      ascii;
    arch        "LSB;label=32;scalar=64";
    class       volScalarField;
    location    "1";
    object      p;
}
// * * * * * * * * * * * * * * * * * * * * * * * * * * * * * * * * * * * * * //

dimensions      [0 2 -2 0 0 0 0];

internalField   nonuniform List<scalar> 
2550
(
261.811
261.513
261.811
261.513
261.695
261.371
261.695
261.371
261.663
261.343
261.663
261.343
261.762
261.481
261.762
261.481
261.827
261.531
261.827
261.531
261.89
261.587
261.89
261.587
262.06
261.829
262.06
261.829
262.154
261.943
262.154
261.943
262.116
261.883
262.116
261.883
262.065
261.833
262.065
261.833
261.98
261.643
261.98
261.643
262.065
261.75
262.065
261.75
262.349
262.228
262.349
262.228
262.594
262.543
262.594
262.543
262.633
262.497
262.633
262.497
262.597
262.412
262.597
262.412
262.635
262.524
262.635
262.524
262.496
262.308
262.496
262.308
262.624
262.264
262.624
262.264
264.054
264.899
264.054
264.899
264.229
266.248
264.229
266.248
263.877
264.727
263.877
264.727
263.65
262.001
263.65
262.001
263.55
261.104
263.55
261.104
263.697
262.416
263.697
262.416
264.566
265.087
264.566
265.087
265.248
266.117
265.248
266.117
265.547
266.426
265.547
266.426
266.474
267.424
266.474
267.424
265.614
266.307
266.479
267.422
266.479
267.422
265.614
266.307
266.483
267.427
266.483
267.427
265.609
266.173
265.609
266.173
266.471
267.375
266.471
267.374
265.639
266.223
265.639
266.223
265.698
266.28
265.698
266.28
266.407
267.265
266.407
267.265
265.843
266.396
265.843
266.396
266.299
267.118
266.299
267.118
266.207
266.993
266.057
266.709
266.207
266.993
266.057
266.709
249.599
250.985
249.599
250.985
249.224
248.218
249.224
248.218
249.633
251.016
249.633
251.016
249.202
250.276
249.202
250.276
249.658
251.042
249.658
251.042
249.614
251.571
249.614
251.571
249.748
251.137
249.748
251.137
249.843
251.233
249.843
251.233
250.402
252.322
250.402
252.322
249.935
251.32
249.935
251.32
250.77
252.563
250.77
252.563
250.054
251.405
250.054
251.405
250.829
252.466
250.829
252.466
250.74
252.295
250.74
252.295
250.136
251.538
250.136
251.538
250.272
251.659
250.389
251.848
250.272
251.659
250.631
252.136
250.631
252.136
250.525
252.028
250.525
252.028
250.389
251.847
247.546
247.546
247.811
247.811
247.581
247.581
247.736
247.606
247.606
247.736
247.764
247.764
247.689
247.689
247.781
247.781
247.973
247.973
248.245
248.245
247.879
247.879
248.428
248.428
248.014
248.014
248.058
248.058
248.471
248.471
248.185
248.219
248.299
248.409
248.409
248.185
248.219
248.299
254.794
255.965
254.794
255.965
255.824
256.336
255.824
256.336
258.091
258.231
258.091
258.231
260.962
260.989
260.962
260.989
263.182
263.164
263.182
263.164
256.969
256.969
257.145
257.145
258.452
258.452
260.988
263.086
260.988
263.086
264.435
264.435
260.109
260.109
255.677
255.677
253.085
253.085
251.978
251.978
264.44
264.44
260.122
260.122
255.699
255.699
253.115
253.115
252.009
252.009
264.445
264.445
260.139
260.139
255.718
255.718
253.131
253.131
252.031
252.031
264.451
264.451
260.176
260.176
255.763
255.763
253.193
253.193
252.113
252.113
264.441
264.441
260.23
260.23
255.853
255.853
253.301
253.301
252.216
252.216
264.418
264.418
260.304
260.304
255.975
255.975
253.417
253.417
252.317
252.317
264.408
264.408
260.4
260.4
256.089
256.089
253.502
253.502
252.395
252.395
264.392
264.392
260.524
260.524
256.265
256.265
253.652
253.652
252.541
252.541
264.341
264.341
260.654
260.654
256.407
256.407
253.772
253.772
252.661
252.661
264.286
264.286
260.776
260.776
256.638
256.638
253.963
253.964
252.854
252.854
264.241
264.241
260.861
260.861
256.883
256.883
254.229
254.229
253.08
253.08
264.218
264.218
260.95
260.95
257.055
257.055
254.439
254.439
253.245
253.245
264.179
264.179
261.029
261.029
257.232
257.232
254.601
254.601
253.41
253.41
264.058
264.058
261.046
261.046
257.42
257.42
254.829
254.829
253.617
253.617
263.842
263.842
261.043
261.043
257.603
257.603
254.958
254.958
253.739
253.739
263.549
263.549
261.011
261.011
257.797
257.797
255.191
255.191
253.769
253.769
263.336
263.336
260.97
260.97
257.956
257.956
255.247
255.247
253.5
253.5
263.258
263.258
260.964
260.964
258.032
258.032
255.146
255.146
252.644
252.644
263.219
263.219
260.963
260.963
258.061
258.061
255.379
255.379
252.41
252.41
243.517
243.517
238.161
238.161
232.776
232.776
227.484
227.484
222.359
222.359
217.332
217.332
212.357
212.357
207.345
207.345
202.209
202.209
197.058
197.058
192.015
192.015
187.033
187.033
182.055
182.055
177.084
177.084
172.092
172.092
167.087
167.087
162.097
162.097
157.114
157.114
152.131
152.131
147.148
147.148
142.165
142.165
137.182
137.182
132.199
132.199
127.215
127.215
122.232
122.232
117.249
117.249
112.265
112.265
107.281
107.281
102.298
102.298
97.3141
97.3141
92.3304
92.3304
87.3466
87.3466
82.3629
82.3629
77.3791
77.3791
72.3954
72.3954
67.4116
67.4116
62.4278
62.4278
57.444
57.4441
52.4603
52.4603
47.4765
47.4765
42.4927
42.4927
37.509
37.509
32.525
32.5251
27.5405
27.5405
22.5539
22.5539
17.5622
17.5622
12.5612
12.5612
7.54707
7.54707
2.51873
2.51873
243.549
243.549
238.193
238.193
232.808
232.808
227.514
227.514
222.387
222.387
217.359
217.359
212.385
212.385
207.374
207.374
202.235
202.235
197.081
197.081
192.039
192.039
187.056
187.056
182.078
182.078
177.107
177.107
172.114
172.114
167.108
167.108
162.117
162.117
157.134
157.134
152.15
152.15
147.167
147.167
142.183
142.183
137.199
137.199
132.215
132.215
127.231
127.231
122.247
122.247
117.263
117.263
112.279
112.279
107.295
107.295
102.311
102.311
97.3264
97.3263
92.342
92.342
87.3576
87.3576
82.3733
82.3733
77.3889
77.3889
72.4045
72.4045
67.4201
67.4201
62.4357
62.4357
57.4513
57.4513
52.4669
52.4669
47.4825
47.4825
42.4981
42.4981
37.5137
37.5137
32.5292
32.5292
27.544
27.544
22.5568
22.5568
17.5644
17.5644
12.5628
12.5628
7.54804
7.54803
2.51905
2.51905
243.568
243.568
238.208
238.208
232.823
232.823
227.529
227.529
222.401
222.401
217.372
217.372
212.403
212.403
207.394
207.394
202.246
202.246
197.088
197.089
192.051
192.051
187.069
187.069
182.09
182.09
177.12
177.12
172.127
172.127
167.119
167.119
162.128
162.128
157.144
157.144
152.16
152.16
147.176
147.176
142.192
142.192
137.208
137.208
132.224
132.224
127.24
127.24
122.255
122.255
117.271
117.271
112.286
112.287
107.302
107.302
102.317
102.317
97.3327
97.3327
92.348
92.3481
87.3633
87.3634
82.3786
82.3787
77.3939
77.3939
72.4092
72.4092
67.4245
67.4245
62.4397
62.4397
57.455
57.455
52.4703
52.4703
47.4856
47.4856
42.5008
42.5008
37.5161
37.5161
32.5312
32.5312
27.5457
27.5457
22.5582
22.5582
17.5655
17.5655
12.5635
12.5635
7.5484
7.5484
2.51914
2.51914
243.648
243.648
238.289
238.289
232.901
232.901
227.605
227.605
222.477
222.477
217.445
217.445
212.48
212.48
207.473
207.473
202.315
202.315
197.15
197.15
192.115
192.115
187.132
187.132
182.15
182.15
177.181
177.181
172.185
172.185
167.174
167.174
162.181
162.181
157.196
157.196
152.211
152.211
147.225
147.225
142.24
142.24
137.254
137.254
132.268
132.268
127.282
127.282
122.296
122.296
117.31
117.31
112.324
112.324
107.338
107.338
102.351
102.351
97.3652
97.3652
92.3788
92.3788
87.3925
87.3925
82.4061
82.4061
77.4198
77.4197
72.4334
72.4334
67.447
67.447
62.4606
62.4606
57.4742
57.4742
52.4878
52.4878
47.5014
47.5014
42.5151
42.5151
37.5287
37.5287
32.5421
32.5421
27.555
27.555
22.5658
22.5658
17.5715
17.5715
12.5678
12.5678
7.55099
7.55099
2.52001
2.52001
243.726
243.726
238.353
238.353
232.963
232.963
227.671
227.671
222.546
222.546
217.515
217.515
212.548
212.548
207.537
207.537
202.372
202.372
197.204
197.204
192.168
192.168
187.185
187.185
182.202
182.202
177.231
177.231
172.234
172.234
167.221
167.221
162.227
162.227
157.24
157.24
152.254
152.254
147.267
147.267
142.279
142.279
137.292
137.292
132.305
132.305
127.318
127.318
122.33
122.33
117.343
117.343
112.355
112.355
107.367
107.367
102.38
102.38
97.3921
97.3921
92.4043
92.4044
87.4166
87.4166
82.4289
82.4289
77.4411
77.4411
72.4533
72.4533
67.4656
67.4656
62.4778
62.4778
57.49
57.49
52.5023
52.5023
47.5145
47.5145
42.5267
42.5267
37.539
37.539
32.5511
32.5511
27.5625
27.5625
22.5719
22.5719
17.5763
17.5763
12.5712
12.5712
7.55295
7.55295
2.52064
2.52064
243.801
243.801
238.414
238.414
233.027
233.027
227.742
227.742
222.621
222.621
217.593
217.593
212.624
212.624
207.608
207.608
202.44
202.44
197.27
197.27
192.232
192.232
187.248
187.248
182.263
182.263
177.291
177.291
172.292
172.292
167.277
167.277
162.281
162.281
157.293
157.293
152.304
152.304
147.315
147.315
142.326
142.326
137.337
137.337
132.348
132.348
127.359
127.359
122.37
122.37
117.381
117.381
112.392
112.392
107.403
107.403
102.413
102.413
97.424
97.424
92.4346
92.4346
87.4453
87.4453
82.4559
82.4559
77.4665
77.4665
72.4771
72.4771
67.4877
67.4877
62.4983
62.4983
57.5089
57.5089
52.5195
52.5195
47.5301
47.5301
42.5407
42.5407
37.5513
37.5513
32.5617
32.5617
27.5716
27.5716
22.5793
22.5793
17.582
17.582
12.5753
12.5753
7.55541
7.55541
2.52145
2.52145
243.877
243.877
238.469
238.469
233.085
233.085
227.81
227.81
222.696
222.696
217.673
217.673
212.702
212.702
207.676
207.676
202.506
202.506
197.336
197.336
192.297
192.297
187.309
187.309
182.323
182.323
177.348
177.348
172.347
172.347
167.331
167.331
162.333
162.333
157.343
157.343
152.352
152.352
147.362
147.362
142.371
142.371
137.381
137.381
132.39
132.39
127.399
127.399
122.409
122.409
117.418
117.418
112.427
112.427
107.436
107.436
102.445
102.445
97.4545
97.4545
92.4635
92.4635
87.4726
87.4726
82.4816
82.4816
77.4907
77.4907
72.4997
72.4997
67.5088
67.5088
62.5178
62.5178
57.5268
57.5268
52.5359
52.5359
47.5449
47.5449
42.554
42.554
37.563
37.563
32.5719
32.5719
27.5802
27.5802
22.5864
22.5864
17.5875
17.5875
12.5792
12.5792
7.55775
7.55775
2.52223
2.52223
243.925
243.925
238.511
238.511
233.142
233.142
227.88
227.88
222.773
222.773
217.758
217.758
212.783
212.783
207.739
207.739
202.569
202.569
197.406
197.406
192.362
192.362
187.372
187.372
182.383
182.383
177.405
177.405
172.403
172.403
167.385
167.385
162.385
162.385
157.393
157.393
152.401
152.401
147.409
147.409
142.417
142.417
137.424
137.424
132.432
132.432
127.44
127.44
122.447
122.447
117.455
117.455
112.463
112.463
107.47
107.47
102.478
102.478
97.4852
97.4852
92.4927
92.4927
87.5002
87.5002
82.5077
82.5077
77.5151
77.5151
72.5226
72.5226
67.5301
67.5301
62.5375
62.5375
57.545
57.545
52.5525
52.5525
47.5599
47.5599
42.5674
42.5674
37.5748
37.5748
32.5821
32.5821
27.5888
27.5888
22.5935
22.5935
17.593
17.593
12.5832
12.5832
7.56011
7.56011
2.52301
2.52301
243.967
243.967
238.542
238.542
233.201
233.201
227.96
227.96
222.848
222.848
217.824
217.824
212.852
212.852
207.821
207.821
202.648
202.648
197.476
197.476
192.43
192.43
187.436
187.436
182.443
182.443
177.463
177.463
172.458
172.458
167.439
167.439
162.438
162.438
157.444
157.444
152.45
152.45
147.456
147.456
142.462
142.462
137.468
137.468
132.474
132.474
127.48
127.48
122.486
122.486
117.492
117.492
112.498
112.498
107.504
107.504
102.51
102.51
97.516
97.516
92.5219
92.5219
87.5278
87.5278
82.5336
82.5336
77.5395
77.5395
72.5454
72.5454
67.5513
67.5513
62.5572
62.5572
57.5631
57.5631
52.569
52.569
47.5749
47.5749
42.5808
42.5808
37.5866
37.5866
32.5924
32.5924
27.5975
27.5975
22.6006
22.6006
17.5986
17.5986
12.5871
12.5871
7.56247
7.56247
2.5238
2.5238
243.977
243.977
238.563
238.563
233.25
233.25
228.034
228.034
222.933
222.933
217.901
217.901
212.92
212.92
207.893
207.893
202.726
202.726
197.553
197.553
192.501
192.501
187.501
187.501
182.504
182.504
177.52
177.52
172.514
172.514
167.494
167.494
162.49
162.49
157.495
157.495
152.499
152.499
147.503
147.503
142.508
142.508
137.512
137.512
132.516
132.516
127.521
127.521
122.525
122.525
117.529
117.529
112.534
112.534
107.538
107.538
102.542
102.542
97.5467
97.5467
92.551
92.551
87.5553
87.5553
82.5596
82.5596
77.5639
77.5639
72.5683
72.5683
67.5726
67.5726
62.5769
62.5769
57.5812
57.5812
52.5855
52.5855
47.5899
47.5899
42.5942
42.5942
37.5985
37.5985
32.6026
32.6026
27.6062
27.6062
22.6077
22.6077
17.6041
17.6041
12.5911
12.5911
7.56484
7.56484
2.52459
2.52459
243.982
243.982
238.572
238.572
233.312
233.312
228.129
228.129
223.026
223.026
217.98
217.98
212.983
212.983
207.951
207.951
202.807
202.807
197.64
197.64
192.574
192.574
187.565
187.565
182.564
182.564
177.578
177.578
172.569
172.569
167.548
167.548
162.543
162.543
157.546
157.546
152.548
152.548
147.551
147.551
142.553
142.553
137.556
137.556
132.559
132.559
127.561
127.561
122.564
122.564
117.567
117.567
112.569
112.569
107.572
107.572
102.575
102.575
97.5774
97.5774
92.5802
92.5802
87.5829
87.5829
82.5856
82.5856
77.5884
77.5884
72.5911
72.5911
67.5939
67.5939
62.5966
62.5966
57.5993
57.5993
52.6021
52.6021
47.6048
47.6048
42.6076
42.6076
37.6103
37.6103
32.6129
32.6129
27.6149
27.6149
22.6148
22.6148
17.6096
17.6096
12.595
12.595
7.56721
7.56721
2.52538
2.52538
243.978
243.978
238.578
238.578
233.398
233.398
228.251
228.251
223.129
223.129
218.062
218.062
213.045
213.045
207.995
207.995
202.881
202.881
197.735
197.735
192.649
192.649
187.627
187.627
182.623
182.623
177.635
177.635
172.625
172.625
167.602
167.602
162.596
162.596
157.596
157.596
152.597
152.597
147.598
147.598
142.599
142.599
137.6
137.6
132.601
132.601
127.602
127.602
122.603
122.603
117.604
117.604
112.605
112.605
107.606
107.606
102.607
102.607
97.6082
97.6082
92.6093
92.6093
87.6105
87.6105
82.6116
82.6116
77.6128
77.6128
72.6139
72.6139
67.6151
67.6151
62.6163
62.6163
57.6175
57.6175
52.6186
52.6186
47.6198
47.6198
42.621
42.621
37.6221
37.6221
32.6231
32.6231
27.6235
27.6235
22.6219
22.6219
17.6151
17.6151
12.599
12.599
7.56959
7.56959
2.52617
2.52617
243.965
243.965
238.591
238.591
233.474
233.474
228.389
228.389
223.239
223.239
218.123
218.123
213.093
213.093
208.047
208.047
202.965
202.965
197.841
197.841
192.724
192.724
187.683
187.683
182.682
182.682
177.692
177.692
172.68
172.68
167.656
167.656
162.648
162.648
157.647
157.647
152.646
152.646
147.645
147.645
142.644
142.644
137.643
137.643
132.643
132.643
127.642
127.642
122.641
122.641
117.641
117.641
112.64
112.64
107.64
107.64
102.639
102.639
97.6389
97.6389
92.6385
92.6385
87.6381
87.6381
82.6376
82.6376
77.6372
77.6372
72.6368
72.6368
67.6364
67.6364
62.636
62.636
57.6356
57.6356
52.6352
52.6352
47.6348
47.6348
42.6344
42.6344
37.6339
37.634
32.6334
32.6334
27.6322
27.6322
22.629
22.629
17.6207
17.6207
12.6029
12.6029
7.57197
7.57197
2.52697
2.52697
243.959
243.959
238.66
238.66
233.552
233.552
228.473
228.473
223.324
223.324
218.201
218.201
213.165
213.165
208.114
208.114
203.032
203.032
197.913
197.913
192.794
192.794
187.747
187.747
182.741
182.741
177.748
177.748
172.735
172.735
167.709
167.709
162.7
162.7
157.697
157.697
152.694
152.694
147.692
147.692
142.689
142.689
137.687
137.687
132.684
132.684
127.682
127.682
122.68
122.68
117.678
117.678
112.676
112.676
107.673
107.673
102.671
102.671
97.6694
97.6694
92.6674
92.6674
87.6654
87.6654
82.6634
82.6634
77.6614
77.6614
72.6595
72.6595
67.6575
67.6575
62.6555
62.6555
57.6536
57.6536
52.6516
52.6516
47.6496
47.6496
42.6477
42.6477
37.6457
37.6457
32.6435
32.6435
27.6408
27.6408
22.636
22.636
17.6261
17.6261
12.6068
12.6068
7.57434
7.57434
2.52776
2.52776
243.962
243.962
238.762
238.762
233.644
233.644
228.522
228.522
223.39
223.39
218.296
218.296
213.259
213.259
208.198
208.198
203.084
203.084
197.953
197.953
192.865
192.865
187.824
187.824
182.805
182.805
177.807
177.807
172.791
172.791
167.764
167.764
162.754
162.754
157.749
157.749
152.745
152.745
147.74
147.74
142.736
142.736
137.732
137.732
132.728
132.728
127.724
127.724
122.72
122.72
117.716
117.716
112.712
112.712
107.709
107.709
102.705
102.705
97.7013
97.7013
92.6977
92.6977
87.694
87.694
82.6904
82.6904
77.6868
77.6868
72.6832
72.6832
67.6796
67.6796
62.676
62.676
57.6724
57.6724
52.6688
52.6688
47.6652
47.6652
42.6616
42.6616
37.658
37.658
32.6542
32.6542
27.6498
27.6498
22.6434
22.6434
17.6319
17.6319
12.611
12.611
7.57686
7.57686
2.52862
2.52862
243.984
243.984
238.855
238.855
233.716
233.716
228.584
228.584
223.483
223.483
218.4
218.4
213.348
213.348
208.246
208.246
203.105
203.105
198.004
198.004
192.938
192.938
187.883
187.883
182.856
182.856
177.854
177.854
172.837
172.837
167.811
167.811
162.799
162.799
157.793
157.793
152.787
152.787
147.781
147.781
142.776
142.776
137.77
137.77
132.765
132.765
127.759
127.759
122.754
122.754
117.749
117.749
112.743
112.743
107.738
107.738
102.733
102.733
97.7282
97.7282
92.7231
92.7231
87.7181
87.7181
82.7131
82.7131
77.7082
77.7082
72.7032
72.7032
67.6982
67.6982
62.6932
62.6932
57.6882
57.6882
52.6832
52.6832
47.6783
47.6783
42.6733
42.6733
37.6683
37.6683
32.6631
32.6631
27.6573
27.6573
22.6495
22.6495
17.6366
17.6366
12.6144
12.6144
7.5789
7.5789
2.5293
2.5293
244.064
244.064
238.938
238.938
233.803
233.803
228.682
228.682
223.567
223.567
218.463
218.463
213.403
213.403
208.316
208.316
203.181
203.181
198.084
198.084
193.013
193.013
187.945
187.945
182.913
182.913
177.91
177.91
172.892
172.892
167.867
167.867
162.854
162.855
157.846
157.846
152.838
152.838
147.83
147.83
142.823
142.823
137.816
137.816
132.809
132.809
127.802
127.802
122.795
122.795
117.788
117.788
112.781
112.781
107.774
107.774
102.767
102.767
97.7607
97.7607
92.7539
92.754
87.7473
87.7473
82.7406
82.7407
77.734
77.734
72.7274
72.7274
67.7207
67.7207
62.7141
62.7141
57.7074
57.7074
52.7008
52.7008
47.6942
47.6942
42.6875
42.6875
37.6808
37.6808
32.674
32.674
27.6666
27.6666
22.6571
22.6571
17.6426
17.6426
12.6187
12.6187
7.58159
7.58159
2.53024
2.53024
244.101
244.101
238.952
238.952
233.817
233.817
228.701
228.701
223.586
223.586
218.477
218.477
213.416
213.416
208.334
208.334
203.199
203.199
198.094
198.094
193.023
193.023
187.96
187.96
182.927
182.927
177.921
177.921
172.902
172.902
167.878
167.878
162.865
162.865
157.856
157.856
152.848
152.848
147.84
147.84
142.833
142.832
137.825
137.825
132.818
132.817
127.81
127.81
122.803
122.803
117.796
117.795
112.788
112.788
107.781
107.781
102.774
102.774
97.767
97.767
92.76
92.76
87.753
87.753
82.746
82.746
77.739
77.739
72.7321
72.7321
67.7251
67.7251
62.7181
62.7181
57.7111
57.7111
52.7042
52.7042
47.6972
47.6972
42.6902
42.6902
37.6832
37.6832
32.6761
32.6761
27.6683
27.6683
22.6585
22.6585
17.6436
17.6436
12.6194
12.6194
7.58203
7.58202
2.53038
2.53038
244.13
244.13
238.982
238.982
233.845
233.845
228.729
228.729
223.615
223.615
218.506
218.506
213.444
213.444
208.362
208.362
203.225
203.225
198.118
198.118
193.047
193.047
187.985
187.985
182.951
182.951
177.943
177.943
172.924
172.924
167.9
167.9
162.886
162.886
157.876
157.876
152.867
152.867
147.859
147.859
142.85
142.85
137.842
137.842
132.834
132.834
127.826
127.826
122.818
122.818
117.81
117.81
112.802
112.802
107.795
107.795
102.787
102.787
97.7793
97.7793
92.7716
92.7716
87.764
87.764
82.7564
82.7564
77.7488
77.7488
72.7412
72.7412
67.7336
67.7336
62.726
62.726
57.7184
57.7184
52.7108
52.7108
47.7032
47.7032
42.6956
42.6956
37.688
37.688
32.6802
32.6802
27.6718
27.6718
22.6614
22.6614
17.6459
17.6459
12.621
12.621
7.58303
7.58303
2.53073
2.53073
262.652
262.652
260.896
260.896
258.939
258.939
258.291
258.291
258.207
258.207
262.456
262.456
260.984
260.984
259.552
259.552
259.179
259.179
259.138
259.138
262.472
262.472
261.197
261.197
260.156
260.156
259.921
259.921
259.893
259.893
262.51
262.51
261.459
261.459
260.697
260.697
260.537
260.537
260.517
260.517
262.583
262.583
261.729
261.729
261.172
261.172
261.052
261.052
261.038
261.038
262.579
262.579
261.949
261.949
261.557
261.557
261.473
261.473
261.463
261.463
262.491
262.491
262.099
262.099
261.843
261.843
261.786
261.786
261.78
261.78
262.423
262.423
262.219
262.219
262.061
262.061
262.025
262.025
262.021
262.021
262.393
262.393
262.324
262.324
262.233
262.233
262.212
262.212
262.209
262.209
262.41
262.41
262.416
262.416
262.372
262.372
262.36
262.36
262.359
262.359
262.455
262.455
262.512
262.512
262.495
262.495
262.489
262.489
262.488
262.488
262.49
262.49
262.604
262.604
262.606
262.606
262.605
262.605
262.605
262.605
262.453
262.453
262.665
262.665
262.701
262.701
262.705
262.705
262.705
262.705
262.38
262.38
262.695
262.695
262.769
262.769
262.78
262.78
262.781
262.781
262.333
262.333
262.706
262.706
262.81
262.81
262.827
262.827
262.829
262.829
262.276
262.276
262.686
262.686
262.818
262.818
262.843
262.843
262.845
262.845
262.224
262.224
262.658
262.658
262.815
262.815
262.845
262.845
262.85
262.85
262.253
262.253
262.708
262.708
262.87
262.87
262.906
262.906
262.914
262.914
262.335
262.335
262.82
262.82
262.99
262.99
263.048
263.048
263.066
263.066
)
;

boundaryField
{
    INLET
    {
        type            zeroGradient;
    }
    OUTLET
    {
        type            fixedValue;
        value           uniform 0;
    }
    WALL1
    {
        type            zeroGradient;
    }
    WALL2
    {
        type            zeroGradient;
    }
    SYS1
    {
        type            empty;
    }
    SYS2
    {
        type            empty;
    }
    SYS3
    {
        type            empty;
    }
    BOTTOM
    {
        type            zeroGradient;
    }
}


// ************************************************************************* //
