/*--------------------------------*- C++ -*----------------------------------*\
| =========                 |                                                 |
| \\      /  F ield         | OpenFOAM: The Open Source CFD Toolbox           |
|  \\    /   O peration     | Version:  2212                                  |
|   \\  /    A nd           | Website:  www.openfoam.com                      |
|    \\/     M anipulation  |                                                 |
\*---------------------------------------------------------------------------*/
FoamFile
{
    version     2.0;
    format      ascii;
    arch        "LSB;label=32;scalar=64";
    class       surfaceScalarField;
    location    "1";
    object      phi;
}
// * * * * * * * * * * * * * * * * * * * * * * * * * * * * * * * * * * * * * //

dimensions      [0 3 -1 0 0 0 0];

oriented        oriented;

internalField   nonuniform List<scalar> 
6175
(
0.0542937
3.86738e-07
0.49387
-0.0480152
1.76661e-07
0.554442
0.054293
0.493871
-0.0480142
0.554442
0.0592661
1.32142e-07
0.487178
-0.0525734
-3.17631e-07
0.613708
0.0592666
0.487179
-0.0525745
0.613708
0.0590991
-6.34608e-08
0.477178
-0.0490994
-5.39097e-07
0.672807
0.0590996
0.477179
-0.0491002
0.672807
0.051109
-7.27445e-08
0.471009
-0.0449405
-3.08984e-07
0.723916
0.0511095
0.47101
-0.0449408
0.723916
0.0518284
5.1854e-08
0.463989
-0.0448085
-2.49385e-07
0.775744
0.0518293
0.46399
-0.0448091
0.775745
0.0551724
-1.63083e-07
0.451784
-0.0429667
-5.09489e-07
0.830917
0.0551733
0.451784
-0.0429683
0.830917
0.0416725
-2.54361e-07
0.442494
-0.0323835
-5.20208e-07
0.87259
0.0416737
0.442495
-0.0323848
0.872591
0.0364302
8.87883e-08
0.432982
-0.0269175
-1.41019e-07
0.909022
0.0364314
0.432982
-0.0269179
0.909022
0.0402117
2.64908e-07
0.419342
-0.0265717
-6.50043e-08
0.949233
0.0402126
0.419342
-0.0265726
0.949234
0.0401407
1.56142e-07
0.406939
-0.027738
-1.34837e-07
0.989374
0.0401417
0.406939
-0.0277388
0.989375
0.0591568
1.64641e-07
0.383885
-0.0361039
-3.89069e-08
1.04853
0.0591583
0.383886
-0.0361045
1.04853
0.0570056
2.30025e-07
0.357387
-0.0305072
1.0407e-07
1.10554
0.0570075
0.357388
-0.0305083
1.10554
0.0210674
7.41215e-08
0.347984
-0.0116645
-2.2969e-07
1.12661
0.0210685
0.347986
-0.0116662
1.12661
0.00839897
-9.20966e-08
0.333996
0.00558953
-7.05135e-07
1.13501
0.00839845
0.333998
0.00559054
1.13501
0.0234078
-1.36749e-08
0.301755
0.00883306
-6.36639e-07
1.15841
0.0234072
0.301757
0.0088342
1.15842
0.0322857
7.08422e-07
0.25858
0.0108877
3.35869e-07
1.1907
0.032287
0.258582
0.0108877
1.1907
0.0200199
1.10547e-06
0.215038
0.0235205
1.43744e-06
1.21072
0.0200247
0.215038
0.0235195
1.21073
0.0337786
7.56841e-07
0.170316
0.0109438
3.98021e-07
1.2445
0.0337788
0.170318
0.0109405
1.24451
0.0587195
-9.66088e-07
0.124764
-0.0131675
-2.20878e-06
1.30322
0.0587132
0.12477
-0.0131643
1.30322
-0.0899237
1.83482e-06
0.167351
0.0473368
6.73762e-06
1.21329
-0.0899058
0.167327
0.0473455
1.21332
-0.0830099
3.20656e-06
0.226187
0.0241715
2.17795e-06
1.13028
-0.0830143
0.226181
0.0241653
1.1303
-0.0233204
-1.53207e-06
0.233781
0.0157219
-7.15347e-07
1.10699
-0.0233185
0.233772
0.0157316
1.10696
0.0194276
-1.81795e-08
0.211671
0.00267977
1.7621e-07
1.12641
0.0194297
0.211662
0.00267793
1.12639
0.072991
8.335e-07
0.129622
0.0090576
1.15959e-06
1.1994
0.0729955
0.129614
0.00905515
1.19939
0.0881201
1.96968e-06
0.0129534
0.0285481
2.62435e-06
1.28752
0.0881244
0.0129466
0.0285438
1.28751
-0.0737825
1.71832e-06
0.0257613
0.0609693
2.99493e-06
1.21374
-0.0737751
0.0257596
0.0609667
1.21374
-0.115572
5.30629e-07
0.0598504
0.0814827
3.33281e-07
1.09817
-0.115571
0.0598507
0.0814813
1.09817
-0.110019
3.47657e-07
0.0863051
0.0835657
2.54491e-08
0.988146
-0.110018
0.0863046
0.0835652
0.988151
-0.0176077
8.94123e-08
0.00132972
0.0162779
2.85607e-08
-0.0176078
-0.0176079
0.00132994
0.016278
-0.017608
-0.0832025
-5.01933e-07
0.0894666
0.0800408
-2.82823e-07
0.904949
-0.0353999
-2.01411e-08
0.00335968
0.0333704
1.12543e-07
-0.0530079
-0.035399
0.0033583
0.0333709
-0.0530073
-0.0832026
0.0894681
0.0800405
0.904943
-0.0721701
-3.33864e-08
0.00814742
0.0673828
-5.88268e-07
-0.125177
-0.0721713
0.0081482
0.0673815
-0.125179
-0.0679987
1.33231e-07
0.0767426
0.0807238
-9.71881e-07
0.836945
-0.0680024
0.0767419
0.080725
0.836947
-0.113679
-7.59667e-08
0.00677879
0.115048
-1.14635e-07
-0.238857
-0.113678
0.00677873
0.115047
-0.238857
-0.0700562
-2.858e-07
0.0659586
0.08084
-1.16921e-06
0.766891
-0.0700584
0.065959
0.0808408
0.766889
-0.0706335
-2.4619e-08
0.0602352
0.0763575
-1.75615e-07
0.696257
-0.0706326
0.0602355
0.0763573
0.696256
-0.108062
-1.78036e-07
0.000111806
0.114729
-5.73115e-07
-0.346919
-0.108062
0.000111905
0.114729
-0.346919
-0.0669687
6.71726e-08
0.0419242
0.0852801
-1.32039e-07
0.629288
-0.0669682
0.0419244
0.0852796
0.629288
-0.101974
-1.16198e-07
-0.00734844
0.109434
-4.80159e-07
-0.448893
-0.101974
-0.00734854
0.109435
-0.448894
-0.0986901
-0.0177838
-1.37556e-07
0.109126
-0.547584
-4.78608e-07
-0.0817046
-1.73571e-07
0.105844
-3.67736e-07
-0.0986901
-0.0177842
0.109126
-0.547584
-0.0817036
0.105844
-0.0453048
-3.69118e-08
-0.00107271
0.0463775
-9.33794e-09
-0.00098567
-0.0443196
-0.0453043
-0.00107292
0.0463771
-0.000985784
-0.0443193
0.0316192
2.67451e-08
-0.0718037
0.0401845
1.00884e-07
0.138482
-0.106863
0.0316205
-0.0718046
0.0401842
0.138479
-0.106858
-0.0916188
-1.04454e-07
-0.00358505
0.0941303
-1.55977e-07
-0.00393665
-0.0886672
-0.0916185
-0.00358497
0.09413
-0.00393637
-0.0886673
-0.0545728
1.45174e-08
-0.0789809
0.0617503
5.45333e-08
0.232402
-0.148493
-0.054572
-0.078981
0.0617491
0.232401
-0.148494
-0.184528
4.24609e-07
-0.00814947
0.189091
4.51077e-07
-0.00921427
-0.17925
-0.184527
-0.00814873
0.189091
-0.00921343
-0.179249
-0.245116
-7.5214e-08
0.0144115
0.151725
-6.71858e-08
0.288985
-0.3017
-0.245117
0.0144118
0.151725
0.288985
-0.3017
-0.305678
-3.06122e-07
-0.0158965
0.313425
-1.01295e-07
-0.0178294
-0.297062
-0.305678
-0.0158965
0.313425
-0.0178295
-0.297061
-0.304992
2.40961e-07
-0.0240573
0.313153
1.58601e-07
-0.0272445
-0.295578
-0.30499
-0.0240582
0.313152
-0.0272454
-0.295577
-0.454736
-3.73729e-08
0.107627
0.36152
1.2416e-08
0.25956
-0.425309
-0.454735
0.107627
0.36152
0.25956
-0.425309
-0.302386
8.52159e-09
-0.0334407
0.311769
-6.63376e-08
-0.0370111
-0.292622
-0.302387
-0.0334401
0.311769
-0.0370107
-0.292623
-0.417509
-7.91794e-08
0.121054
0.404082
-1.82379e-07
0.204388
-0.362337
-0.417511
0.121054
0.404083
0.204388
-0.362339
-0.315467
-8.29375e-08
-0.0430665
0.325093
-7.40034e-08
-0.0510747
-0.301402
-0.315463
-0.0430686
0.325091
-0.051078
-0.301398
-0.368215
7.57181e-08
0.119938
0.369331
5.79145e-08
0.171572
-0.335399
-0.368216
0.119939
0.36933
0.171573
-0.3354
-0.355243
1.90547e-07
0.1064
0.36878
3.23988e-07
0.13817
-0.32184
-0.35524
0.106401
0.368778
0.13817
-0.321837
-0.299789
5.00246e-07
-0.0552583
0.311978
1.16179e-06
-0.0630251
-0.287844
-0.29978
-0.0552599
0.311974
-0.063027
-0.287829
-0.321122
-6.39928e-07
-0.0665439
0.332408
-4.33408e-07
-0.0795007
-0.304647
-0.306886
0.0665502
-0.0788374
3.99479e-06
0.319169
0.07951
-0.0929523
6.18775e-06
-0.29345
-0.321119
0.332409
-0.304636
-0.346485
2.91181e-07
0.0907335
0.362152
2.92465e-07
0.108536
-0.316849
-0.346489
0.0907385
0.36215
0.10854
-0.316857
-0.312038
2.20241e-06
0.323932
2.72906e-06
-0.296457
-0.312022
0.0788418
0.323921
0.0929594
-0.296437
-0.30684
0.319142
-0.293373
1.20395e-07
-0.00192984
0.0483064
-0.00192954
0.0483068
-4.66494e-08
-0.012449
0.0526337
-0.0124498
0.0526346
2.49242e-07
-0.00588903
0.0980891
-0.00588849
0.0980888
1.68077e-07
-0.0550779
0.104378
-9.21161e-07
-0.0142393
0.197443
-0.0142391
0.197441
-0.0550786
0.104379
2.43172e-07
-0.0728439
0.169491
-0.0728443
0.169492
6.97087e-07
-0.0275954
0.326782
-0.0275965
0.326783
-4.0523e-07
-0.0419658
0.327522
-0.0419658
0.327522
1.36649e-07
0.00825588
0.280418
0.00825496
0.280418
1.0742e-07
0.0913568
0.32098
0.0913565
0.320981
-4.85011e-07
-0.0590601
0.328862
-0.0590603
0.328863
-1.5035e-07
0.121656
0.339032
0.121654
0.339033
-3.97978e-07
-0.0694063
0.335438
-0.0694077
0.335437
-4.12951e-07
-0.0914119
0.33398
-0.09141
0.333981
1.51569e-07
0.133719
0.356715
0.133722
0.356715
-0.101301
1.12434e-06
0.342296
-0.120801
3.90049e-06
0.338666
-0.137658
2.6715e-06
0.340788
-3.26706e-07
0.137662
0.35821
0.358215
-0.101296
0.342294
-0.120805
0.338656
0.340781
-0.240313
-4.61001e-08
-0.104142
0.344454
-1.59562e-08
-0.029765
-0.210548
-0.240315
-0.104138
0.344453
-0.0297656
-0.21055
-0.661844
2.2926e-07
-0.134241
0.691948
1.17737e-07
-0.0779799
-0.613631
-0.661848
-0.13424
0.691948
-0.07798
-0.613634
-1.02456
6.57166e-09
-0.0621431
0.952459
4.7854e-08
-0.0441298
-1.05841
-1.02456
-0.0621432
0.95246
-0.0441305
-1.05841
-1.06679
-1.6409e-07
-0.0332236
1.03787
-1.54434e-07
-0.0311555
-1.07977
-1.06679
-0.0332247
1.03787
-0.0311548
-1.07977
-0.650017
1.13284e-06
0.632515
4.59747e-07
-0.657003
-0.650011
0.63252
-0.656994
3.32549e-08
-0.0328257
-0.177724
-0.0328241
-0.177723
-8.71685e-10
-0.113086
-0.533373
-0.113085
-0.533371
2.3228e-08
-0.110953
-1.06054
-0.110953
-1.06054
-0.063435
-6.66675e-07
-1.12728
-6.09372e-07
-0.673098
-0.063436
-1.12728
-0.673092
-4.12611e-07
0.0250163
-0.00873803
0.0250166
-0.00873906
-2.4738e-07
0.0363772
-0.0113606
0.0363774
-0.0113607
5.19758e-08
0.0419933
-0.00561597
0.0419936
-0.00561614
1.98142e-08
0.0439326
-0.00193916
0.0439316
-0.00193771
-1.64925e-09
-0.000386613
-0.00038673
7.04333e-07
0.0508125
-0.02618
0.0508125
-0.0261805
9.09826e-07
0.0736943
-0.0342434
0.0736944
-0.0342412
9.70784e-07
0.0844118
-0.0163336
0.0844112
-0.0163314
3.51206e-07
0.0873116
-0.00483844
0.0873113
-0.0048364
7.12238e-08
-0.00174223
-0.0017418
-3.12867e-08
0.101583
-0.060381
0.101585
-0.0603828
-1.47248e-06
0.146745
-0.0794041
0.146745
-0.0794029
-1.73291e-07
0.168898
-0.038485
0.168896
-0.038482
-2.54867e-07
0.176961
-0.0129019
0.176961
-0.0129015
-1.2718e-07
-0.00402961
-0.00403068
-6.49964e-08
0.165904
-0.111236
0.165904
-0.111239
-2.13336e-06
0.240213
-0.153711
0.240206
-0.153709
7.6198e-07
0.278962
-0.0772362
0.278961
-0.0772354
1.98818e-07
0.292698
-0.0266382
0.292698
-0.0266381
1.33683e-08
-0.00839408
-0.00839391
-3.28151e-07
0.162549
-0.159056
0.162547
-0.159057
-1.32218e-06
0.23776
-0.228921
0.237756
-0.22892
8.05286e-07
0.277827
-0.117304
0.277826
-0.117305
3.24323e-07
0.291259
-0.0400697
0.291259
-0.0400701
5.40454e-08
-0.0127125
-0.0127126
-5.39517e-07
0.15987
-0.209491
0.159869
-0.209492
-4.28458e-07
0.235941
-0.304992
0.235941
-0.304992
6.56893e-07
0.275652
-0.157016
0.275654
-0.157016
-2.17315e-08
0.288426
-0.052844
0.288428
-0.0528442
-1.42153e-08
-0.0169083
-0.0169083
2.16321e-07
0.155827
-0.256194
0.155827
-0.256193
1.32973e-07
0.231174
-0.380339
0.231175
-0.380339
8.96104e-07
0.277041
-0.202882
0.277043
-0.202884
3.76326e-08
0.29527
-0.0710725
0.295273
-0.071076
2.49893e-09
-0.0230359
-0.0230367
2.3848e-07
0.146721
-0.297072
0.146721
-0.297071
6.70011e-07
0.223876
-0.457494
0.223877
-0.457494
1.11929e-06
0.267995
-0.247003
0.267987
-0.246995
-1.6173e-06
0.28281
-0.0858855
0.282795
-0.0858867
3.06024e-09
-0.0280688
-0.0280699
6.15751e-07
0.136707
-0.3485
0.136708
-0.3485
1.41779e-06
0.216944
-0.537733
0.216949
-0.537736
6.4011e-06
0.274391
-0.304457
0.274404
-0.304443
-4.05846e-06
0.297122
-0.108612
0.297116
-0.108601
-7.98486e-07
-0.0355916
-0.0355902
2.47789e-07
0.127896
-0.400038
0.127898
-0.400039
3.63122e-06
0.205012
-0.614854
0.20502
-0.614856
1.79468e-05
0.264606
-0.364069
0.264679
-0.364085
-2.42091e-06
0.286402
-0.130404
0.286484
-0.130407
-2.00192e-06
-0.0425612
-0.0425577
-5.76887e-07
0.1227
-0.441897
0.1227
-0.441896
3.80425e-07
0.203948
-0.696103
0.203945
-0.696099
1.09045e-05
0.268585
-0.428717
0.268597
-0.428726
7.81376e-07
0.289397
-0.151215
0.289414
-0.151223
-5.38493e-07
-0.0496015
-0.0496016
-1.17949e-06
0.114861
-0.476032
0.114861
-0.476032
-6.40999e-07
0.188508
-0.769749
0.188509
-0.769745
2.38476e-06
0.272378
-0.512589
0.272375
-0.512589
8.36632e-07
0.305467
-0.184301
0.305456
-0.184302
4.09332e-08
-0.0609933
-0.0609941
-1.6116e-06
0.114083
-0.510074
0.114083
-0.510073
-1.11259e-06
0.176604
-0.832268
0.176604
-0.832266
2.7572e-08
0.26553
-0.601514
0.265529
-0.601513
4.89151e-07
0.308503
-0.227272
0.308502
-0.227273
1.14567e-07
-0.0743302
-0.0743303
-8.14707e-07
0.10985
-0.536356
0.10985
-0.536357
-7.02866e-07
0.167927
-0.890344
0.167927
-0.890344
-1.75422e-07
0.264051
-0.697637
0.264051
-0.697636
-1.4796e-07
0.31779
-0.281012
0.317793
-0.281012
2.45079e-09
-0.0919383
-0.091938
9.1144e-08
0.10297
-0.557844
0.10297
-0.557846
-2.50196e-07
0.153076
-0.940451
0.153077
-0.940451
2.60111e-07
0.2374
-0.781959
0.237399
-0.781958
1.16878e-07
0.326449
-0.370062
0.326448
-0.370061
6.93343e-08
-0.127828
-0.127828
-4.30013e-07
0.0924367
-0.589314
0.0924373
-0.589311
7.57507e-07
0.142796
-0.990811
0.142796
-0.990812
3.37774e-07
0.223514
-0.862677
0.223514
-0.862676
1.03062e-07
0.353886
-0.500432
0.353884
-0.500431
2.90025e-09
-0.199252
-0.199252
-4.10237e-07
0.0505712
-0.611339
0.0505714
-0.611334
1.53782e-07
0.0824776
-1.02272
0.0824776
-1.02272
1.55525e-07
0.142007
-0.922207
0.142007
-0.922205
1.14735e-07
0.239299
-0.597725
0.239299
-0.597723
-3.18027e-09
-0.261654
-0.261654
-4.5972e-07
0.0224123
-0.624693
0.0224123
-0.624689
3.6003e-08
0.0315521
-1.03186
0.0315522
-1.03186
6.92378e-08
0.0532336
-0.943889
0.0532338
-0.943887
5.74945e-08
0.125418
-0.669908
0.125418
-0.669906
9.14855e-09
-0.284731
-0.28473
-3.0451e-07
0.0105049
0.0105048
1.91445e-08
0.0165229
0.0165231
3.0677e-08
0.025095
0.0250952
4.47745e-08
0.0471355
0.0471377
-6.18815e-09
-4.68153e-07
0.0502753
-0.00196825
0.0502749
-0.00196926
-4.36291e-07
0.0507665
-0.000490676
0.0507666
-0.000492072
-3.16111e-07
0.0502797
0.000487286
0.0502795
0.000486908
-2.4961e-07
0.0496489
0.000631297
0.0496488
0.000630696
-1.99307e-07
0.049136
0.000513217
0.0491358
0.00051282
-1.55674e-07
0.0488433
0.000292893
0.048843
0.000292394
-3.67893e-07
0.0492
-0.000356455
0.0491999
-0.00035752
-3.21083e-07
0.0501346
-0.000934172
0.0501348
-0.000935076
-1.33689e-08
0.0497369
0.000398038
0.0497368
0.000398132
-4.42742e-08
0.0483334
0.00140343
0.0483331
0.00140308
-2.04747e-07
0.0482399
9.30452e-05
0.0482398
9.26123e-05
-1.52893e-07
0.0486925
-0.00045245
0.0486924
-0.00045257
-1.33407e-07
0.0487472
-5.41743e-05
0.048747
-5.48238e-05
-1.47199e-07
0.0488252
-7.796e-05
0.0488251
-7.85236e-05
-2.00382e-07
0.048891
-6.56322e-05
0.0488909
-6.59848e-05
-2.10419e-07
0.0488277
6.35669e-05
0.0488277
6.31418e-05
-1.66091e-07
0.0487618
6.61127e-05
0.0487618
6.57174e-05
-1.5837e-07
0.0487572
4.77997e-06
0.0487572
4.53053e-06
-1.46751e-07
0.0487564
1.10445e-06
0.0487564
8.26656e-07
-1.42248e-07
0.0487559
6.93927e-07
0.0487559
2.72529e-07
-1.43425e-07
0.0487555
4.25432e-07
0.0487555
1.33541e-07
-1.37514e-07
0.0487552
4.44428e-07
0.0487552
3.24912e-07
-1.24984e-07
0.0487549
5.55889e-07
0.0487549
3.53629e-07
-1.20121e-07
0.0487546
5.11793e-07
0.0487545
2.05027e-07
-1.24622e-07
0.0487542
3.96029e-07
0.0487542
1.55771e-07
-1.24461e-07
0.0487539
4.31194e-07
0.0487539
2.62796e-07
-1.2128e-07
0.0487536
5.27225e-07
0.0487536
3.60172e-07
-1.17796e-07
0.0487533
5.35915e-07
0.0487532
4.13206e-07
-1.09356e-07
0.0487529
6.09144e-07
0.0487529
5.3945e-07
-9.65436e-08
0.0487524
6.98928e-07
0.0487524
5.74267e-07
-8.84527e-08
0.0487518
6.93284e-07
0.0487518
4.67651e-07
-8.9469e-08
0.0487512
6.26392e-07
0.0487512
3.74603e-07
-9.06499e-08
0.0487506
5.84442e-07
0.0487506
3.9364e-07
-8.72937e-08
0.0487501
6.05951e-07
0.0487501
4.78291e-07
-7.88529e-08
0.0487496
6.4723e-07
0.0487496
5.32319e-07
-6.81172e-08
0.048749
6.39715e-07
0.048749
5.00127e-07
-5.95484e-08
0.0487485
5.80434e-07
0.0487485
4.25895e-07
-5.43514e-08
0.048748
5.1226e-07
0.0487479
3.8089e-07
-4.92089e-08
0.0487475
4.59388e-07
0.0487475
3.69391e-07
-4.24195e-08
0.0487471
4.38277e-07
0.0487471
3.71511e-07
-3.63436e-08
0.0487468
3.86937e-07
0.0487468
3.16824e-07
-3.37125e-08
0.0487465
2.65756e-07
0.0487465
1.92125e-07
-3.2974e-08
0.0487466
-1.01864e-07
0.0487466
-1.55236e-07
-3.18764e-08
0.048748
-1.28142e-06
0.048748
-1.30366e-06
-2.33742e-08
0.0487527
-4.67219e-06
0.0487527
-4.67824e-06
-1.2347e-08
0.0487651
-1.23392e-05
0.0487651
-1.23667e-05
-3.69851e-09
0.0487879
-2.27976e-05
0.0487879
-2.28638e-05
-9.09064e-10
0.0487563
3.14516e-05
0.0487564
3.13524e-05
-2.64221e-10
3.26021e-05
3.25625e-05
6.29888e-08
0.102411
-0.00629014
0.102411
-0.00629111
1.09395e-07
0.103447
-0.00152712
0.103448
-0.00152945
3.70303e-07
0.102574
0.00136028
0.102574
0.00136148
4.88178e-07
0.101294
0.00191092
0.101295
0.001911
5.92087e-07
0.100212
0.00159411
0.100213
0.00159512
6.22434e-07
0.0996356
0.000868599
0.0996356
0.000869783
2.1421e-07
0.0995123
-0.000233534
0.0995082
-0.000229831
2.9394e-07
0.0993631
-0.000785227
0.0993553
-0.000781964
9.34422e-07
0.0991941
0.000565449
0.0991901
0.0005639
8.62752e-07
0.0993507
0.00124479
0.0993506
0.00124305
5.61204e-07
0.0994135
2.9241e-05
0.0994137
2.99389e-05
5.08578e-07
0.0994046
-0.000443962
0.0994048
-0.000443216
5.06177e-07
0.0995023
-0.000152726
0.0995024
-0.000152328
4.55756e-07
0.099598
-0.000174509
0.0995981
-0.000173936
4.96189e-07
0.0996618
-0.000129986
0.0996619
-0.000129345
4.61174e-07
0.0996158
0.000109183
0.0996159
0.000109711
3.63043e-07
0.0995586
0.000123083
0.0995588
0.000123584
3.83905e-07
0.0995553
8.06694e-06
0.0995554
8.59488e-06
3.70671e-07
0.0995581
-1.84929e-06
0.0995581
-1.54707e-06
3.44846e-07
0.0995613
-2.9145e-06
0.0995613
-2.74017e-06
3.22055e-07
0.0995645
-3.10662e-06
0.0995646
-2.72251e-06
3.1856e-07
0.0995677
-2.90178e-06
0.0995678
-2.37044e-06
3.1953e-07
0.0995709
-2.67953e-06
0.0995709
-2.31719e-06
3.03455e-07
0.0995738
-2.68373e-06
0.0995738
-2.45437e-06
2.75984e-07
0.0995766
-2.62127e-06
0.0995766
-2.32778e-06
2.58503e-07
0.0995793
-2.30383e-06
0.0995793
-1.96895e-06
2.429e-07
0.0995818
-1.90191e-06
0.0995818
-1.57286e-06
2.28575e-07
0.0995841
-1.61707e-06
0.0995841
-1.21952e-06
2.25434e-07
0.0995862
-1.28174e-06
0.0995862
-8.41406e-07
2.28539e-07
0.0995879
-1.05987e-06
0.099588
-7.31699e-07
2.20726e-07
0.0995894
-1.01975e-06
0.0995894
-8.48633e-07
2.22934e-07
0.0995906
-1.00165e-06
0.0995906
-8.4322e-07
2.07888e-07
0.0995917
-8.45885e-07
0.0995918
-6.1581e-07
1.91176e-07
0.0995928
-5.81865e-07
0.0995928
-2.99912e-07
1.84552e-07
0.0995937
-3.63112e-07
0.0995937
-9.8082e-08
1.79331e-07
0.0995945
-3.00198e-07
0.0995945
-9.92534e-08
1.68923e-07
0.0995951
-2.96351e-07
0.0995951
-1.41313e-07
1.53856e-07
0.0995957
-2.97098e-07
0.0995957
-1.34003e-07
1.39304e-07
0.0995962
-2.49027e-07
0.0995962
-5.58734e-08
1.2702e-07
0.0995967
-1.67432e-07
0.0995967
2.79741e-08
1.18171e-07
0.0995971
-1.68127e-07
0.0995971
-2.86245e-09
1.02116e-07
0.0995976
-2.77723e-07
0.0995976
-1.49359e-07
8.13326e-08
0.0995982
-7.32765e-07
0.0995982
-6.10996e-07
6.12307e-08
0.0995993
-2.33175e-06
0.0995993
-2.20481e-06
5.58355e-08
0.0996015
-6.89188e-06
0.0996015
-6.77156e-06
5.49679e-08
0.0996055
-1.63296e-05
0.0996055
-1.62641e-05
4.87346e-08
0.0996068
-2.43478e-05
0.0996068
-2.43749e-05
3.18672e-08
0.0996006
3.73189e-05
0.0996005
3.72849e-05
5.21136e-09
3.71622e-05
3.70182e-05
-2.0901e-06
0.205695
-0.0145407
0.205694
-0.0145463
-2.83819e-06
0.207802
-0.00363115
0.207804
-0.00364186
-2.00621e-06
0.206049
0.00311671
0.206048
0.00311512
-1.8286e-06
0.20355
0.00441169
0.20355
0.00440707
-1.56343e-06
0.201341
0.00380469
0.20134
0.00380302
-1.3689e-06
0.200069
0.00214184
0.200068
0.00214028
-1.85046e-06
0.199204
0.000632904
0.199204
0.000632407
-1.74606e-06
0.198486
-6.52417e-05
0.198486
-6.60593e-05
-1.35237e-06
0.198694
0.000358746
0.198693
0.000355217
-1.18864e-06
0.199409
0.000530059
0.199409
0.000526226
-1.31878e-06
0.199635
-0.000194894
0.199635
-0.000197763
-1.56475e-06
0.199685
-0.000492339
0.199685
-0.00049518
-1.58216e-06
0.199822
-0.000289307
0.199822
-0.000291968
-1.45377e-06
0.199839
-0.000190308
0.199839
-0.000192816
-1.38323e-06
0.19982
-0.000109191
0.19982
-0.000111579
-1.37552e-06
0.199875
5.51038e-05
0.199875
5.29857e-05
-1.29323e-06
0.199922
7.81544e-05
0.199922
7.62038e-05
-1.21593e-06
0.199921
1.05703e-05
0.199921
8.43447e-06
-1.16819e-06
0.199922
-1.37738e-06
0.199922
-3.65306e-06
-1.17693e-06
0.199923
-2.99562e-06
0.199923
-5.04775e-06
-1.14715e-06
0.199924
-2.94519e-06
0.199924
-4.71069e-06
-1.06914e-06
0.199925
-2.80858e-06
0.199925
-4.52584e-06
-1.02281e-06
0.199926
-2.72522e-06
0.199926
-4.49256e-06
-1.01034e-06
0.199927
-2.75574e-06
0.199927
-4.46092e-06
-9.82925e-07
0.199928
-2.49607e-06
0.199928
-4.11284e-06
-9.38402e-07
0.199929
-1.97826e-06
0.199929
-3.52328e-06
-9.08809e-07
0.19993
-1.32466e-06
0.19993
-2.74784e-06
-8.70904e-07
0.19993
-7.00335e-07
0.19993
-1.98686e-06
-8.0951e-07
0.199931
-1.44653e-07
0.199931
-1.37586e-06
-7.50926e-07
0.19993
1.20783e-07
0.19993
-1.1477e-06
-7.19052e-07
0.19993
1.75767e-07
0.19993
-1.11075e-06
-7.05927e-07
0.199929
2.83733e-07
0.199929
-9.12033e-07
-6.80401e-07
0.199928
6.3765e-07
0.199928
-4.20303e-07
-6.34471e-07
0.199927
1.00508e-06
0.199927
4.88758e-08
-5.77152e-07
0.199926
1.25582e-06
0.199926
3.43289e-07
-5.26267e-07
0.199925
1.25556e-06
0.199925
3.68562e-07
-4.90771e-07
0.199924
1.17305e-06
0.199924
3.45959e-07
-4.59825e-07
0.199923
1.06419e-06
0.199923
3.40284e-07
-4.1785e-07
0.199922
1.07597e-06
0.199922
4.65825e-07
-3.70069e-07
0.199921
1.02823e-06
0.199921
5.02397e-07
-3.28752e-07
0.199921
9.14622e-07
0.199921
4.36459e-07
-2.99092e-07
0.19992
6.11914e-07
0.19992
1.70276e-07
-2.75787e-07
0.19992
-1.4767e-07
0.19992
-5.3554e-07
-2.3498e-07
0.19992
-2.1935e-06
0.19992
-2.51439e-06
-1.77916e-07
0.199921
-7.08357e-06
0.199921
-7.34221e-06
-1.20021e-07
0.199919
-1.50425e-05
0.199919
-1.52732e-05
-7.76799e-08
0.199911
-1.64034e-05
0.199911
-1.66198e-05
-5.43367e-08
0.199914
3.35729e-05
0.199915
3.33488e-05
-1.08646e-08
3.43299e-05
3.42953e-05
1.98095e-06
0.339884
-0.0276446
0.339886
-0.0276481
2.61215e-06
0.343744
-0.00749294
0.343743
-0.00749623
1.79736e-06
0.341049
0.00580972
0.341049
0.00581052
1.89116e-06
0.336645
0.00881394
0.336645
0.00881296
1.52451e-06
0.333151
0.00729661
0.333152
0.00729688
1.52921e-06
0.330999
0.00429281
0.330999
0.0042946
1.57617e-06
0.329619
0.00201105
0.329619
0.00201345
1.78103e-06
0.328947
0.000604063
0.328948
0.000607383
1.90534e-06
0.329147
0.00015738
0.329147
0.000157188
1.90638e-06
0.329895
-0.000220189
0.329895
-0.000220641
1.57383e-06
0.33034
-0.000642056
0.33034
-0.000642078
1.48599e-06
0.330538
-0.000691831
0.330538
-0.000691821
1.40577e-06
0.330686
-0.000439601
0.330686
-0.000439556
1.3239e-06
0.330736
-0.000242119
0.330736
-0.000241993
1.17973e-06
0.330744
-0.000118287
0.330744
-0.000117893
1.1601e-06
0.330834
-3.63252e-05
0.330835
-3.5795e-05
1.33027e-06
0.330917
-5.13354e-06
0.330917
-4.7265e-06
1.29306e-06
0.33094
-1.33923e-05
0.33094
-1.31787e-05
1.17734e-06
0.330951
-1.36818e-05
0.330951
-1.34468e-05
1.08126e-06
0.330959
-1.20205e-05
0.330959
-1.16564e-05
1.05779e-06
0.330966
-1.0983e-05
0.330966
-1.05632e-05
1.0615e-06
0.330973
-1.06024e-05
0.330973
-1.02083e-05
1.00493e-06
0.33098
-1.04032e-05
0.33098
-1.00181e-05
9.45226e-07
0.330986
-1.00808e-05
0.330986
-9.71649e-06
9.24905e-07
0.330992
-9.31514e-06
0.330992
-8.98898e-06
8.93066e-07
0.330998
-8.23262e-06
0.330998
-7.8841e-06
8.40372e-07
0.331003
-6.94657e-06
0.331003
-6.55798e-06
8.19124e-07
0.331008
-5.6078e-06
0.331008
-5.24528e-06
8.2057e-07
0.331012
-4.46863e-06
0.331012
-4.2087e-06
7.88278e-07
0.331015
-3.7732e-06
0.331015
-3.61324e-06
7.1341e-07
0.331018
-3.17742e-06
0.331018
-3.03799e-06
6.39655e-07
0.33102
-2.52413e-06
0.33102
-2.33797e-06
6.00863e-07
0.331021
-1.69449e-06
0.331021
-1.46943e-06
5.94166e-07
0.331023
-8.83068e-07
0.331023
-6.75162e-07
5.84481e-07
0.331024
-3.43123e-07
0.331024
-1.85997e-07
5.41211e-07
0.331024
-1.2819e-07
0.331024
-9.51139e-09
4.72967e-07
0.331025
-4.01284e-08
0.331025
7.85049e-08
4.14395e-07
0.331026
4.22975e-09
0.331026
1.58786e-07
3.84444e-07
0.331026
1.49764e-07
0.331026
3.45527e-07
3.63525e-07
0.331027
2.45264e-07
0.331027
4.49661e-07
3.28483e-07
0.331027
2.0963e-07
0.331027
3.87205e-07
2.79285e-07
0.331027
-1.23341e-07
0.331027
1.92715e-08
2.34224e-07
0.331028
-1.02829e-06
0.331028
-9.1218e-07
2.17552e-07
0.331029
-3.12865e-06
0.331029
-3.02594e-06
2.13218e-07
0.331029
-7.00382e-06
0.331029
-6.92249e-06
1.97351e-07
0.331024
-1.07413e-05
0.331024
-1.07003e-05
1.50613e-07
0.331013
-5.47922e-06
0.331013
-5.4772e-06
7.78139e-08
0.331024
2.18276e-05
0.331024
2.18209e-05
1.43067e-08
1.81189e-05
1.80881e-05
8.08021e-07
0.340393
-0.0405177
0.340393
-0.0405193
3.2337e-07
0.343531
-0.0106309
0.34353
-0.0106326
3.8549e-08
0.340301
0.00903916
0.340302
0.00903866
1.26297e-07
0.336229
0.0128867
0.336228
0.0128857
-3.08022e-07
0.332979
0.0105461
0.332978
0.0105461
-8.56958e-07
0.331051
0.00622166
0.33105
0.00622233
-7.27188e-07
0.330009
0.00305364
0.330008
0.00305448
-8.59353e-07
0.329367
0.00124703
0.329367
0.00124751
-3.532e-07
0.329345
0.00017943
0.329345
0.000178592
-3.19127e-07
0.329905
-0.000780695
0.329904
-0.000781627
-3.54906e-07
0.330373
-0.00111058
0.330373
-0.00111121
-4.04566e-07
0.330622
-0.000940999
0.330622
-0.000941987
-3.39898e-07
0.330741
-0.000558351
0.330741
-0.000558872
-4.27238e-07
0.330804
-0.000305822
0.330804
-0.000306066
-4.58035e-07
0.330848
-0.000161056
0.330847
-0.000161182
-3.67381e-07
0.33091
-9.76645e-05
0.33091
-9.79586e-05
-3.16678e-07
0.330966
-6.05441e-05
0.330966
-6.09458e-05
-3.45005e-07
0.330989
-3.61122e-05
0.330989
-3.647e-05
-3.82144e-07
0.330999
-2.32449e-05
0.330999
-2.35505e-05
-3.72993e-07
0.331005
-1.7777e-05
0.331005
-1.80497e-05
-3.5476e-07
0.33101
-1.50688e-05
0.33101
-1.5258e-05
-3.42139e-07
0.331014
-1.40836e-05
0.331014
-1.41941e-05
-3.36765e-07
0.331018
-1.3881e-05
0.331018
-1.4011e-05
-3.16825e-07
0.331022
-1.33457e-05
0.331022
-1.35405e-05
-2.86009e-07
0.331025
-1.23006e-05
0.331025
-1.24919e-05
-2.69972e-07
0.331028
-1.08065e-05
0.331028
-1.09333e-05
-2.5449e-07
0.331031
-9.01547e-06
0.331031
-9.12312e-06
-2.22449e-07
0.331033
-7.2867e-06
0.331033
-7.47679e-06
-1.93407e-07
0.331036
-5.88884e-06
0.331036
-6.17204e-06
-1.96738e-07
0.331037
-4.86757e-06
0.331037
-5.17614e-06
-2.18795e-07
0.331038
-3.92752e-06
0.331038
-4.17869e-06
-2.17748e-07
0.331038
-2.84462e-06
0.331038
-3.02032e-06
-1.81113e-07
0.331039
-1.67131e-06
0.331039
-1.81823e-06
-1.31418e-07
0.331039
-6.16533e-07
0.331039
-7.83872e-07
-1.0732e-07
0.331038
2.23141e-08
0.331038
-1.71585e-07
-1.23706e-07
0.331038
2.92314e-07
0.331038
9.38245e-08
-1.51971e-07
0.331037
3.91486e-07
0.331037
2.22923e-07
-1.56386e-07
0.331037
5.08583e-07
0.331037
3.9696e-07
-1.33032e-07
0.331036
6.58816e-07
0.331036
6.05542e-07
-1.06949e-07
0.331036
7.60065e-07
0.331036
7.3159e-07
-9.64e-08
0.331036
6.52833e-07
0.331036
6.15319e-07
-9.40739e-08
0.331035
1.96113e-07
0.331035
1.45044e-07
-7.88133e-08
0.331036
-8.88616e-07
0.331036
-9.37868e-07
-4.60347e-08
0.331036
-2.95322e-06
0.331036
-2.9961e-06
-9.03659e-09
0.331035
-5.82893e-06
0.331035
-5.87304e-06
1.00336e-08
0.331031
-6.96614e-06
0.331031
-7.01452e-06
5.00001e-10
0.331025
-2.83267e-07
0.331025
-3.27581e-07
-2.39661e-08
0.331028
1.84829e-05
0.331028
1.8446e-05
-1.36149e-08
1.34916e-05
1.34719e-05
5.46109e-07
0.340746
-0.0524017
0.340746
-0.0524026
3.23277e-07
0.342674
-0.0125586
0.342673
-0.0125591
2.76989e-07
0.33909
0.0126228
0.33909
0.012623
5.39772e-07
0.33515
0.0168259
0.33515
0.0168259
-4.48775e-07
0.332241
0.0134551
0.332241
0.0134546
-7.32746e-07
0.330822
0.0076416
0.330822
0.0076413
-3.3589e-07
0.330148
0.00372771
0.330148
0.00372783
-9.23848e-08
0.329409
0.00198584
0.329409
0.00198606
1.74294e-07
0.329426
0.000161838
0.329426
0.000161804
1.98222e-07
0.329923
-0.00127902
0.329923
-0.00127938
1.82843e-07
0.330352
-0.00153957
0.330352
-0.0015399
2.33186e-07
0.330596
-0.00118602
0.330596
-0.00118637
9.80091e-08
0.330743
-0.000705601
0.330743
-0.000705686
8.29944e-08
0.330818
-0.000381586
0.330818
-0.000381497
1.28454e-07
0.330875
-0.000217208
0.330875
-0.000217241
1.10317e-07
0.330925
-0.000147287
0.330925
-0.000147407
1.02444e-07
0.330966
-0.000102259
0.330966
-0.000102357
1.01535e-07
0.330988
-5.74336e-05
0.330988
-5.75303e-05
1.12167e-07
0.330998
-3.38298e-05
0.330998
-3.394e-05
8.09023e-08
0.331004
-2.31256e-05
0.331004
-2.31528e-05
4.86719e-08
0.331008
-1.91132e-05
0.331008
-1.90234e-05
5.5704e-08
0.331012
-1.79986e-05
0.331012
-1.79096e-05
6.65971e-08
0.331016
-1.76019e-05
0.331016
-1.76191e-05
7.40492e-08
0.33102
-1.70605e-05
0.33102
-1.71383e-05
8.17293e-08
0.331024
-1.55995e-05
0.331024
-1.56341e-05
8.20455e-08
0.331027
-1.38749e-05
0.331027
-1.38461e-05
8.77951e-08
0.33103
-1.16547e-05
0.33103
-1.16601e-05
8.95662e-08
0.331032
-9.56431e-06
0.331032
-9.68454e-06
8.45048e-08
0.331035
-7.99876e-06
0.331035
-8.18401e-06
6.3969e-08
0.331036
-6.58309e-06
0.331036
-6.74457e-06
4.72555e-08
0.331038
-5.21534e-06
0.331038
-5.30625e-06
6.02943e-08
0.331039
-3.75329e-06
0.331039
-3.7922e-06
9.37457e-08
0.331039
-2.267e-06
0.331039
-2.30741e-06
1.1689e-07
0.331039
-9.80421e-07
0.331039
-1.05285e-06
1.05892e-07
0.331039
-2.46903e-07
0.331039
-3.41776e-07
5.87539e-08
0.331039
9.41605e-08
0.331039
-1.4796e-08
2.0273e-08
0.331039
2.77356e-07
0.331039
1.96249e-07
1.45407e-08
0.331039
5.02137e-07
0.331039
4.79229e-07
2.6721e-08
0.331039
7.16119e-07
0.331039
7.36478e-07
3.65288e-08
0.331039
8.56306e-07
0.331039
8.79704e-07
3.21742e-08
0.331039
7.0994e-07
0.331039
7.09134e-07
2.34852e-08
0.331039
1.86748e-07
0.331039
1.69744e-07
2.54804e-08
0.331039
-9.19455e-07
0.331039
-9.35639e-07
4.10369e-08
0.331039
-2.78552e-06
0.331039
-2.79824e-06
5.84921e-08
0.331038
-4.79166e-06
0.331038
-4.8036e-06
5.95373e-08
0.331035
-4.25953e-06
0.331035
-4.27248e-06
3.68792e-08
0.331032
2.26612e-06
0.331032
2.25651e-06
4.22792e-10
0.331033
1.67053e-05
0.331033
1.66952e-05
-7.42713e-09
1.15113e-05
1.15094e-05
5.48801e-08
0.342494
-0.0594583
0.342494
-0.059458
7.731e-08
0.341823
-0.0118875
0.341823
-0.0118875
1.6295e-07
0.33773
0.0167159
0.33773
0.016716
1.36725e-07
0.334029
0.0205268
0.334029
0.0205269
-8.33442e-08
0.331606
0.0158779
0.331606