/*--------------------------------*- C++ -*----------------------------------*\
| =========                 |                                                 |
| \\      /  F ield         | OpenFOAM: The Open Source CFD Toolbox           |
|  \\    /   O peration     | Version:  2212                                  |
|   \\  /    A nd           | Website:  www.openfoam.com                      |
|    \\/     M anipulation  |                                                 |
\*---------------------------------------------------------------------------*/
FoamFile
{
    version     2.0;
    format      ascii;
    arch        "LSB;label=32;scalar=64";
    class       volVectorField;
    location    "1";
    object      U;
}
// * * * * * * * * * * * * * * * * * * * * * * * * * * * * * * * * * * * * * //

dimensions      [0 1 -1 0 0 0 0];

internalField   nonuniform List<vector> 
2550
(
(-0.856128 -0.0526291 24.8218)
(-0.853917 -46.9532 23.4861)
(-0.856135 -0.0526281 -24.8218)
(-0.853911 -46.9532 -23.4861)
(-0.971864 -0.0564186 24.6705)
(-0.958639 -47.4434 23.7301)
(-0.971864 -0.0564177 -24.6705)
(-0.95864 -47.4434 -23.7301)
(-0.985927 -0.0543918 23.9001)
(-0.978842 -50.0054 25.0118)
(-0.985927 -0.0543909 -23.9001)
(-0.978843 -50.0054 -25.0118)
(-0.951488 -0.0488617 24.0184)
(-0.953968 -48.4429 24.2321)
(-0.95149 -0.0488602 -24.0181)
(-0.953968 -48.4429 -24.2321)
(-0.932731 -0.0494207 23.7827)
(-0.938773 -45.1666 22.5926)
(-0.932732 -0.0494199 -23.7827)
(-0.938773 -45.1666 -22.5925)
(-0.915808 -0.051506 24.8877)
(-0.922445 -46.9532 23.486)
(-0.915809 -0.0515052 -24.8876)
(-0.922446 -46.9532 -23.486)
(-0.891362 -0.0399455 24.8088)
(-0.903255 -46.5074 23.2663)
(-0.891362 -0.0399448 -24.8088)
(-0.903256 -46.5074 -23.2663)
(-0.876327 -0.0341386 23.8347)
(-0.889634 -43.9414 21.9833)
(-0.876328 -0.0341381 -23.8347)
(-0.889635 -43.9414 -21.9833)
(-0.851151 -0.0365521 23.9572)
(-0.864949 -43.5981 21.8106)
(-0.851151 -0.0365518 -23.9572)
(-0.86495 -43.5981 -21.8106)
(-0.823841 -0.0370607 24.1113)
(-0.840074 -43.2939 21.6584)
(-0.823841 -0.0370604 -24.1113)
(-0.840075 -43.2939 -21.6583)
(-0.792082 -0.0514596 24.9631)
(-0.795272 -42.9325 21.4733)
(-0.792082 -0.0514594 -24.9631)
(-0.795274 -42.9325 -21.4733)
(-0.737337 -0.0463564 25.0472)
(-0.742527 -46.958 23.4882)
(-0.73734 -0.0463564 -25.0472)
(-0.74253 -46.958 -23.4882)
(-0.705649 -0.0174088 25.1488)
(-0.699314 -46.7955 23.4158)
(-0.705648 -0.0174082 -25.1488)
(-0.699314 -46.7958 -23.4159)
(-0.679739 -0.00372327 25.2869)
(-0.698822 -42.1965 21.117)
(-0.679751 -0.00372134 -25.2869)
(-0.698822 -42.1967 -21.1171)
(-0.63703 -0.0104695 24.667)
(-0.671182 -41.796 20.9129)
(-0.637036 -0.0104677 -24.667)
(-0.671181 -41.796 -20.9129)
(-0.562785 -0.01385 25.5808)
(-0.600375 -41.6045 20.8153)
(-0.562788 -0.0138497 -25.5808)
(-0.600376 -41.6045 -20.8153)
(-0.475142 -0.00335656 26.1453)
(-0.563574 -42.3626 21.1974)
(-0.475144 -0.00335805 -26.1453)
(-0.563573 -42.363 -21.1976)
(-0.386454 -0.0167745 26.0662)
(-0.40825 -42.3342 21.1799)
(-0.386449 -0.0167739 -26.0645)
(-0.408251 -42.3347 -21.1801)
(-0.276524 -0.0308465 25.1923)
(-0.248897 -45.3938 22.7073)
(-0.276545 -0.0308412 -25.1907)
(-0.248898 -45.3939 -22.7074)
(-0.286433 0.1326 -25.3563)
(0.0693914 -55.3742 -27.7682)
(-0.286511 0.132578 25.3563)
(0.0693519 -55.3736 27.7679)
(-0.393729 0.23791 -24.9907)
(-0.41555 -39.1445 -19.6635)
(-0.393639 0.237904 24.9911)
(-0.415527 -39.1462 19.6643)
(-0.459934 0.0978007 23.0808)
(-0.839071 -26.4709 13.2551)
(-0.459805 0.0978033 -23.0809)
(-0.839032 -26.4703 -13.2548)
(-0.445249 -0.112344 19.8754)
(-1.11595 -15.6006 7.76099)
(-0.445231 -0.11236 -19.8763)
(-1.11592 -15.6003 -7.76084)
(-0.360834 -0.207022 23.6482)
(-1.05833 -29.2758 14.5669)
(-0.36084 -0.207041 -23.6486)
(-1.05828 -29.2756 -14.5668)
(-0.114769 -0.0999198 25.1185)
(-0.455869 -44.7074 22.3385)
(-0.114754 -0.0999288 -25.1186)
(-0.455867 -44.7073 -22.3385)
(0.00942909 0.104472 25.6235)
(0.12022 -46.5648 23.4016)
(0.00943804 0.104466 -25.6234)
(0.120215 -46.5649 -23.4017)
(-0.0787371 0.155843 26.1521)
(0.116033 -48.4865 24.4545)
(-0.078736 0.155842 -26.152)
(0.116035 -48.4866 -24.4546)
(-0.149545 0.155968 25.8233)
(0.0106833 -45.4573 22.9971)
(-0.149544 0.155968 -25.8231)
(0.0106809 -45.4573 -22.9971)
(0.00484368 0.17723 25.3373)
(0.0432851 -48.1432 25.2307)
(0.00487573 0.177232 -25.3373)
(0.0432507 -48.1432 -25.2307)
(-0.183774 0.134434 -25.8654)
(-0.0760583 -42.0653 -21.3395)
(0.00304168 0.180203 25.8371)
(0.0524471 -48.3433 25.318)
(0.00300167 0.180201 -25.8371)
(0.0524708 -48.3434 -25.318)
(-0.183776 0.134433 25.8654)
(-0.0760578 -42.0649 21.3393)
(0.0118583 0.181065 25.9236)
(0.0501202 -49.9236 26.1099)
(0.0118602 0.181067 -25.9236)
(0.0500995 -49.9236 -26.1099)
(-0.170084 0.1193 25.8285)
(-0.11797 -42.4743 21.6089)
(-0.170082 0.119304 -25.8285)
(-0.117967 -42.4747 -21.6091)
(0.017944 0.177289 25.963)
(0.0571758 -48.9451 25.5344)
(0.0179448 0.17729 -25.963)
(0.0571839 -48.9451 -25.5344)
(-0.144192 0.119847 25.5129)
(-0.107304 -42.6171 21.7498)
(-0.144192 0.11985 -25.5129)
(-0.107304 -42.6169 -21.7497)
(-0.125272 0.121392 25.7843)
(-0.102094 -43.3416 22.1878)
(-0.125272 0.121393 -25.7843)
(-0.102096 -43.3414 -22.1877)
(0.00509807 0.170902 25.9302)
(0.0236905 -48.8783 25.4203)
(0.00509777 0.170904 -25.9302)
(0.023688 -48.8783 -25.4203)
(-0.104176 0.123462 25.9786)
(-0.105549 -42.8472 22.0012)
(-0.104176 0.123462 -25.9786)
(-0.105548 -42.8472 -22.0012)
(-0.00814748 0.163476 25.8534)
(0.0129485 -47.502 24.6279)
(-0.00814741 0.163478 -25.8534)
(0.0129482 -47.502 -24.6279)
(-0.0245183 0.15773 25.931)
(-0.00917184 -47.6955 24.6516)
(-0.0624706 0.139843 25.9797)
(-0.0778899 -46.8381 24.1287)
(-0.0245187 0.157732 -25.931)
(-0.00917202 -47.6955 -24.6516)
(-0.062471 0.139844 -25.9797)
(-0.0778893 -46.8381 -24.1287)
(0.0195961 0.455153 -20.5189)
(0.0184274 0.461589 -20.6984)
(0.0195271 0.45515 20.5189)
(0.0183613 0.461586 20.6984)
(0.375649 -0.0100689 19.6744)
(-1.41433 0.719829 17.9077)
(0.375635 -0.0100765 -19.6743)
(-1.41433 0.719829 -17.9077)
(-0.0272107 0.461027 20.8218)
(-0.0272423 0.467281 20.9771)
(-0.027272 0.461026 -20.8218)
(-0.0273067 0.467283 -20.9771)
(0.302455 0.358312 21.7589)
(-0.377758 0.624162 17.5095)
(0.302459 0.358307 -21.7589)
(-0.377748 0.624165 -17.5095)
(-0.0126812 0.463535 20.9298)
(-0.0158091 0.468921 21.0905)
(-0.0126214 0.463533 -20.9298)
(-0.0157482 0.468922 -21.0904)
(0.0312753 0.592697 -23.1811)
(-1.01149 0.67321 -17.9611)
(0.0312743 0.592697 23.1811)
(-1.0115 0.673208 17.9611)
(-0.050324 0.464113 20.8999)
(-0.0558608 0.467849 21.144)
(-0.0503415 0.464111 -20.8999)
(-0.0558754 0.467855 -21.1445)
(-0.0795745 0.463796 -20.8773)
(-0.0897278 0.469707 -21.147)
(-0.079578 0.463795 20.8773)
(-0.0897304 0.469698 21.1465)
(-0.299043 0.65788 -23.2607)
(-1.03279 0.657836 -20.8061)
(-0.299043 0.657879 23.2607)
(-1.0328 0.657835 20.8061)
(-0.1148 0.46268 -20.905)
(-0.128049 0.467775 -20.9608)
(-0.114801 0.462676 20.9047)
(-0.128049 0.467775 20.9608)
(-0.460375 0.628399 22.6504)
(-0.912833 0.59501 21.6351)
(-0.460375 0.628402 -22.6504)
(-0.912837 0.595012 -21.6351)
(-0.152432 0.491683 22.5989)
(-0.177133 0.493656 22.4759)
(-0.152439 0.49168 -22.5988)
(-0.177141 0.493655 -22.4759)
(-0.473201 0.554058 -21.4386)
(-0.713907 0.543793 -20.9179)
(-0.473205 0.554058 21.4386)
(-0.71391 0.543793 20.9179)
(-0.460219 0.571923 -23.34)
(-0.619998 0.547703 -21.9554)
(-0.460221 0.571921 23.34)
(-0.619995 0.547701 21.9554)
(-0.197161 0.463188 -20.7197)
(-0.226048 0.466168 -20.708)
(-0.19716 0.463178 20.7197)
(-0.226048 0.46618 20.708)
(-0.24274 0.504123 -22.6426)
(-0.286942 0.499199 -22.3126)
(-0.291046 0.470689 20.237)
(-0.342048 0.476503 20.7344)
(-0.242756 0.504124 22.6427)
(-0.28696 0.499229 22.3126)
(-0.389026 0.561449 23.5234)
(-0.487229 0.545237 22.2641)
(-0.389034 0.561448 -23.5234)
(-0.487232 0.545244 -22.264)
(-0.33816 0.479136 20.049)
(-0.398787 0.490473 20.5758)
(-0.338179 0.479122 -20.0489)
(-0.39881 0.490487 -20.5758)
(-0.291043 0.470641 -20.2368)
(-0.342042 0.476487 -20.7343)
(0.0208278 0.498997 22.6683)
(0.0209001 0.498999 -22.6682)
(0.048961 0.389145 -22.2296)
(0.0490107 0.38915 22.2297)
(-0.0250552 0.508458 -23.1)
(-0.0249951 0.508455 23.0999)
(0.051265 0.42702 -24.1635)
(-0.00932112 0.511045 -23.2094)
(-0.00937889 0.511043 23.2094)
(0.0512186 0.427025 24.1635)
(0.149779 0.474709 23.8345)
(0.149771 0.47471 -23.8344)
(-0.043845 0.512631 -23.2446)
(-0.0438268 0.512631 23.2446)
(-0.0695254 0.513598 23.2503)
(-0.0695236 0.513599 -23.2503)
(0.0553047 0.548993 23.073)
(0.0553075 0.548992 -23.073)
(-0.109365 0.5941 23.6854)
(-0.109364 0.594102 -23.6855)
(-0.100939 0.514108 23.2551)
(-0.100939 0.514107 -23.2551)
(-0.229376 0.565526 22.7048)
(-0.229374 0.565527 -22.7049)
(-0.128298 0.517388 23.3456)
(-0.1283 0.517383 -23.3453)
(-0.16126 0.519502 23.2507)
(-0.16126 0.519505 -23.2507)
(-0.254207 0.552982 -22.7547)
(-0.25421 0.55298 22.7547)
(-0.192398 0.528513 23.3842)
(-0.222447 0.528238 22.8631)
(-0.261399 0.529535 22.4406)
(-0.271233 0.545133 -22.8458)
(-0.271233 0.545144 22.8462)
(-0.19239 0.528512 -23.3842)
(-0.222447 0.528211 -22.8631)
(-0.261408 0.529522 -22.4406)
(-2.95057 0.12092 14.1434)
(-2.302 0.0399033 13.353)
(-2.9506 0.120909 -14.1424)
(-2.302 0.0399 -13.3529)
(-2.37933 0.523944 -27.9836)
(-2.17396 0.178135 -16.7598)
(-2.37935 0.523935 27.9829)
(-2.17397 0.178132 16.7595)
(-1.37242 0.396855 28.3881)
(-1.46434 0.240075 19.5312)
(-1.37243 0.39685 -28.3879)
(-1.46434 0.240073 -19.5312)
(-0.782658 0.208454 25.3233)
(-0.80352 0.170686 21.4354)
(-0.782653 0.208459 -25.324)
(-0.803518 0.170692 -21.4362)
(-0.417638 0.10508 24.7462)
(-0.43234 0.12327 25.2749)
(-0.417641 0.105086 -24.7461)
(-0.432337 0.123276 -25.2736)
(-2.04878 0.0273433 -20.5604)
(-2.04876 0.0273592 20.5599)
(-2.02181 0.113819 17.701)
(-2.0218 0.113818 -17.701)
(-1.45193 0.187476 -19.5095)
(-1.45193 0.187476 19.5095)
(-0.827494 0.165349 22.1265)
(-0.441455 0.113747 24.4873)
(-0.827501 0.165349 -22.1265)
(-0.441448 0.113747 -24.4866)
(0.0029527 0.229739 -25.4725)
(0.0028629 0.229739 25.4724)
(0.00763043 0.335307 -25.186)
(0.00754992 0.33531 25.1861)
(0.0133614 0.434219 -24.7578)
(0.0132933 0.434222 24.7579)
(0.0164602 0.471102 -23.0017)
(0.0163884 0.471102 23.0018)
(0.0179398 0.41036 -18.647)
(0.0178716 0.410355 18.6469)
(-0.0139894 0.234357 -25.997)
(-0.0138819 0.234352 25.9964)
(-0.0242566 0.342714 -25.7792)
(-0.0241582 0.342717 25.7792)
(-0.0289798 0.440884 -25.1889)
(-0.0288933 0.440876 25.1884)
(-0.027536 0.475873 -23.2599)
(-0.0274637 0.475868 23.2598)
(-0.0273171 0.407546 -18.5107)
(-0.0272473 0.407544 18.5108)
(-0.0261058 0.235444 -26.1293)
(-0.0261142 0.235451 26.1302)
(-0.0387792 0.343766 -25.861)
(-0.0388106 0.34377 25.8614)
(-0.0327519 0.439505 -25.0663)
(-0.0328024 0.439499 25.066)
(-0.0232206 0.475465 -23.2605)
(-0.0232775 0.475461 23.2606)
(-0.0194335 0.414381 -18.9029)
(-0.019493 0.414387 18.9034)
(-0.0532643 0.233094 -26.0096)
(-0.0532667 0.233099 26.0103)
(-0.0832386 0.338972 -25.5483)
(-0.0832372 0.338967 25.5479)
(-0.0781656 0.437013 -24.9839)
(-0.07816 0.436996 24.9828)
(-0.0689649 0.473476 -23.4103)
(-0.0689554 0.473477 23.4105)
(-0.0633972 0.418011 -19.3414)
(-0.0633855 0.418013 19.3415)
(-0.0849759 0.227406 -25.8011)
(-0.0849763 0.227406 25.8011)
(-0.136107 0.334441 -25.4156)
(-0.136106 0.334437 25.4152)
(-0.132273 0.434769 -24.975)
(-0.132273 0.434758 24.9743)
(-0.115599 0.476081 -23.5071)
(-0.1156 0.476081 23.5072)
(-0.104783 0.414726 -19.0564)
(-0.104784 0.414727 19.0565)
(-0.117185 0.220662 -25.761)
(-0.117186 0.22066 25.7609)
(-0.193548 0.334634 -25.774)
(-0.193548 0.334633 25.7738)
(-0.187815 0.432619 -24.885)
(-0.187815 0.432619 24.885)
(-0.162215 0.474566 -23.1689)
(-0.162216 0.474568 23.169)
(-0.14765 0.409843 -18.5455)
(-0.147649 0.409847 18.5457)
(-0.14758 0.215719 -25.9593)
(-0.14758 0.215719 25.9593)
(-0.248228 0.326367 -25.4062)
(-0.248228 0.326367 25.4062)
(-0.246707 0.429505 -24.5402)
(-0.246709 0.429504 24.5402)
(-0.215951 0.477767 -23.0658)
(-0.215959 0.47777 23.066)
(-0.199416 0.42019 -18.9961)
(-0.199419 0.420199 18.9965)
(-0.178436 0.204656 -25.8402)
(-0.178436 0.204656 25.8402)
(-0.303461 0.313985 -24.9143)
(-0.303461 0.313986 24.9143)
(-0.309047 0.424122 -24.1735)
(-0.309042 0.424114 24.1736)
(-0.273235 0.462338 -22.1215)
(-0.273248 0.462356 22.1219)
(-0.255157 0.404532 -18.1171)
(-0.255179 0.404488 18.1136)
(-0.207468 0.189668 -25.5572)
(-0.207467 0.189668 25.5572)
(-0.362327 0.311453 -25.1654)
(-0.362328 0.311459 25.1654)
(-0.377081 0.413959 -23.4637)
(-0.377068 0.413931 23.4636)
(-0.338798 0.480423 -22.8364)
(-0.338757 0.480535 22.8425)
(-0.317337 0.42688 -19.1042)
(-0.317315 0.426824 19.0999)
(-0.240671 0.18285 -25.9108)
(-0.240671 0.182852 25.9108)
(-0.425086 0.299066 -24.9537)
(-0.425087 0.299084 24.9538)
(-0.462014 0.405495 -23.0147)
(-0.462011 0.405465 23.0148)
(-0.42102 0.461613 -21.7696)
(-0.421055 0.46173 21.7799)
(-0.393526 0.416739 -18.6059)
(-0.393518 0.416898 18.6156)
(-0.27296 0.177655 -25.7957)
(-0.27296 0.177655 25.7957)
(-0.474314 0.292761 -25.3238)
(-0.474313 0.292772 25.3239)
(-0.54363 0.422534 -24.442)
(-0.543645 0.42251 24.4411)
(-0.490757 0.476308 -22.0959)
(-0.490743 0.476267 22.0964)
(-0.460281 0.416891 -17.8747)
(-0.460253 0.416956 17.8795)
(-0.300536 0.1695 -25.0959)
(-0.300536 0.169499 25.0959)
(-0.547036 0.278366 -24.6427)
(-0.547033 0.278368 24.6427)
(-0.652636 0.40536 -23.7947)
(-0.652643 0.405362 23.7947)
(-0.584883 0.517178 -23.5951)
(-0.584904 0.517164 23.595)
(-0.552223 0.429126 -17.5501)
(-0.552245 0.429112 17.5501)
(-0.318878 0.173098 -25.7725)
(-0.318878 0.173098 25.7725)
(-0.587847 0.276506 -25.1344)
(-0.587844 0.276507 25.1344)
(-0.76862 0.396335 -23.3836)
(-0.768618 0.396337 23.3835)
(-0.71687 0.511797 -23.2707)
(-0.716871 0.511795 23.2705)
(-0.681674 0.442229 -18.0466)
(-0.681671 0.442224 18.0465)
(-0.345172 0.172136 -25.7561)
(-0.345171 0.172136 25.7561)
(-0.639736 0.266122 -25.2172)
(-0.639736 0.266122 25.2172)
(-0.904112 0.385087 -23.3146)
(-0.904109 0.385086 23.3146)
(-0.886956 0.51006 -23.083)
(-0.886959 0.510062 23.083)
(-0.806356 0.477055 -18.964)
(-0.806359 0.477056 18.964)
(-0.358915 0.163022 -25.8611)
(-0.358916 0.163023 25.8611)
(-0.679094 0.253268 -25.3955)
(-0.679094 0.253269 25.3955)
(-1.03727 0.365179 -22.2498)
(-1.03727 0.365179 22.2498)
(-1.12453 0.477996 -21.3018)
(-1.12453 0.477996 21.3017)
(-1.07291 0.508504 -19.8906)
(-1.0729 0.508501 19.8904)
(-0.370319 0.13751 -26.0582)
(-0.370319 0.137513 26.0582)
(-0.724158 0.236693 -25.5784)
(-0.724157 0.236693 25.5784)
(-1.14704 0.360138 -22.6834)
(-1.14704 0.360138 22.6834)
(-1.4218 0.521168 -21.366)
(-1.4218 0.521167 21.366)
(-1.46023 0.563282 -18.2931)
(-1.46024 0.563281 18.2931)
(-0.394161 0.0973739 -25.4215)
(-0.394159 0.0973786 25.4215)
(-0.750503 0.214672 -24.73)
(-0.750504 0.214672 24.73)
(-1.25176 0.373871 -23.4675)
(-1.25176 0.373871 23.4675)
(-1.99409 0.611353 -21.6753)
(-1.99407 0.611351 21.6754)
(-2.24561 0.641655 -16.0772)
(-2.24561 0.641655 16.0773)
(-0.403161 0.0827201 -22.9671)
(-0.403157 0.0827239 22.9671)
(-0.762328 0.175065 -20.7417)
(-0.762329 0.175066 20.7417)
(-1.29161 0.295648 -17.9342)
(-1.29161 0.295649 17.9342)
(-2.28319 0.547221 -15.0124)
(-2.28318 0.54722 15.0124)
(-2.97607 0.630116 -11.9108)
(-2.97607 0.630112 11.9108)
(-0.413351 0.0734285 -19.2591)
(-0.413348 0.0734283 19.2592)
(-0.769452 0.163325 -19.5839)
(-0.769451 0.163329 19.5843)
(-1.33138 0.291798 -18.6306)
(-1.33138 0.291799 18.6307)
(-2.41935 0.59118 -14.7456)
(-2.41935 0.591173 14.7455)
(-3.17161 0.589027 -7.6799)
(-3.17161 0.589077 7.68064)
(0.0206233 0.507896 -22.9486)
(0.0205515 0.507894 22.9486)
(0.0208203 0.500549 -22.0929)
(0.0207475 0.50055 22.0929)
(0.0209402 0.497604 -21.5948)
(0.0208687 0.497605 21.5948)
(0.0205077 0.497259 -21.6156)
(0.0204373 0.49726 21.6156)
(0.0197608 0.496611 -21.6513)
(0.0196921 0.496612 21.6513)
(0.0189604 0.48916 -21.1554)
(0.0188934 0.489159 21.1554)
(0.0184085 0.488379 -20.6703)
(0.0183426 0.488378 20.6703)
(0.0178182 0.496267 -20.1843)
(0.0177537 0.496269 20.1843)
(0.0178816 0.503197 -19.6894)
(0.0178193 0.503199 19.6894)
(0.0177624 0.488857 -18.8104)
(0.0177015 0.488856 18.8104)
(0.0166869 0.480848 -18.332)
(0.0166272 0.480847 18.332)
(0.0159615 0.487154 -18.2098)
(0.0159034 0.487154 18.2098)
(0.0157277 0.486594 -17.7256)
(0.0156709 0.486594 17.7256)
(0.0153697 0.487369 -17.2424)
(0.0153145 0.487369 17.2424)
(0.0149504 0.489035 -16.7563)
(0.0148968 0.489035 16.7563)
(0.0145312 0.488928 -16.2697)
(0.014479 0.488928 16.2697)
(0.0140933 0.487864 -15.7838)
(0.0140427 0.487864 15.7838)
(0.0136291 0.487517 -15.2986)
(0.0135802 0.487517 15.2986)
(0.0131965 0.487505 -14.8134)
(0.013149 0.487505 14.8134)
(0.0127657 0.487514 -14.3282)
(0.0127197 0.487514 14.3282)
(0.0123349 0.487524 -13.843)
(0.0122905 0.487524 13.843)
(0.0119043 0.487533 -13.3578)
(0.0118616 0.487533 13.3578)
(0.0114737 0.487542 -12.8725)
(0.0114325 0.487542 12.8725)
(0.0110432 0.48755 -12.3873)
(0.0110035 0.48755 12.3873)
(0.0106124 0.487557 -11.902)
(0.0105743 0.487557 11.902)
(0.0101819 0.487564 -11.4168)
(0.0101453 0.487564 11.4168)
(0.00975152 0.48757 -10.9315)
(0.0097165 0.48757 10.9315)
(0.00932085 0.487576 -10.4463)
(0.0092874 0.487576 10.4463)
(0.0088903 0.487581 -9.961)
(0.00885842 0.487581 9.961)
(0.00845983 0.487584 -9.47572)
(0.00842946 0.487585 9.47572)
(0.00802929 0.487587 -8.99045)
(0.0080004 0.487587 8.99045)
(0.00759875 0.487589 -8.50517)
(0.00757138 0.487589 8.50517)
(0.00716823 0.48759 -8.01989)
(0.00714244 0.48759 8.01989)
(0.00673763 0.48759 -7.53461)
(0.00671341 0.487591 7.53461)
(0.00630708 0.487591 -7.04932)
(0.0062844 0.487591 7.04933)
(0.0058765 0.487592 -6.56404)
(0.00585535 0.487592 6.56404)
(0.00544583 0.487592 -6.07876)
(0.00542622 0.487592 6.07876)
(0.00501531 0.487591 -5.59348)
(0.00499727 0.487591 5.59348)
(0.00458475 0.487591 -5.10819)
(0.00456827 0.487591 5.10819)
(0.00415416 0.487591 -4.62291)
(0.00413923 0.487591 4.62291)
(0.00372354 0.487592 -4.13763)
(0.00371015 0.487592 4.13763)
(0.00329296 0.487599 -3.65234)
(0.0032811 0.487599 3.65234)
(0.00286224 0.487636 -3.16705)
(0.00285193 0.487636 3.16705)
(0.00243126 0.487768 -2.68169)
(0.0024225 0.487768 2.68169)
(0.00199919 0.488118 -2.19613)
(0.00199197 0.488118 2.19613)
(0.00156444 0.488822 -1.71007)
(0.00155876 0.488822 1.71007)
(0.00112572 0.489915 -1.2231)
(0.00112157 0.489915 1.2231)
(0.000735249 0.491253 -0.734875)
(0.000732539 0.491254 0.734875)
(0.000270516 0.480974 -0.239565)
(0.000270322 0.480974 0.239565)
(-0.0195249 0.518456 -23.4216)
(-0.019466 0.518456 23.4216)
(-0.0159066 0.510208 -22.5219)
(-0.0158486 0.510208 22.5218)
(-0.0135032 0.507325 -22.0175)
(-0.0134435 0.507326 22.0175)
(-0.0129109 0.507539 -22.0595)
(-0.0128534 0.507539 22.0595)
(-0.0129313 0.507091 -22.1055)
(-0.0128746 0.507091 22.1055)
(-0.0130103 0.499377 -21.6021)
(-0.0129552 0.499376 21.6021)
(-0.0132747 0.498704 -21.117)
(-0.0132192 0.498703 21.117)
(-0.0132802 0.498154 -20.26)
(-0.0132259 0.498112 20.2582)
(-0.0118033 0.49325 -19.2917)
(-0.0117523 0.493209 19.29)
(-0.0107784 0.497019 -19.1256)
(-0.0107288 0.497018 19.1256)
(-0.0116935 0.500875 -19.1017)
(-0.0116438 0.500874 19.1017)
(-0.0118896 0.497694 -18.6048)
(-0.0118411 0.497694 18.6048)
(-0.0112274 0.497116 -18.1102)
(-0.0111807 0.497116 18.1102)
(-0.0108554 0.497877 -17.6165)
(-0.0108098 0.497877 17.6165)
(-0.0105154 0.498859 -17.0934)
(-0.0104709 0.498859 17.0934)
(-0.0100736 0.498753 -16.5969)
(-0.0100305 0.498752 16.5969)
(-0.00976881 0.498409 -16.1262)
(-0.00972695 0.498408 16.1262)
(-0.00955669 0.498052 -15.6304)
(-0.00951602 0.498052 15.6304)
(-0.00926298 0.498044 -15.1347)
(-0.00922373 0.498044 15.1347)
(-0.00896287 0.498054 -14.639)
(-0.00892501 0.498054 14.639)
(-0.00866203 0.498064 -14.1433)
(-0.00862527 0.498064 14.1433)
(-0.0083606 0.498073 -13.6475)
(-0.00832497 0.498073 13.6475)
(-0.00805911 0.498082 -13.1518)
(-0.00802488 0.498082 13.1518)
(-0.0077577 0.49809 -12.656)
(-0.00772485 0.49809 12.656)
(-0.00745646 0.498098 -12.1602)
(-0.00742483 0.498098 12.1602)
(-0.00715509 0.498105 -11.6645)
(-0.00712473 0.498105 11.6645)
(-0.00685364 0.498111 -11.1687)
(-0.00682456 0.498111 11.1687)
(-0.0065523 0.498117 -10.6729)
(-0.00652443 0.498117 10.6729)
(-0.00625088 0.498122 -10.1771)
(-0.00622423 0.498122 10.1771)
(-0.00594957 0.498126 -9.68128)
(-0.00592428 0.498126 9.68128)
(-0.00564839 0.498128 -9.18547)
(-0.00562451 0.498128 9.18547)
(-0.00534729 0.49813 -8.68967)
(-0.00532471 0.49813 8.68967)
(-0.00504617 0.498131 -8.19386)
(-0.00502479 0.498131 8.19386)
(-0.00474476 0.498132 -7.69805)
(-0.0047246 0.498132 7.69805)
(-0.0044434 0.498133 -7.20224)
(-0.00442453 0.498133 7.20224)
(-0.00414223 0.498133 -6.70643)
(-0.00412467 0.498133 6.70643)
(-0.00384105 0.498133 -6.21062)
(-0.00382478 0.498133 6.21062)
(-0.00353992 0.498133 -5.71481)
(-0.0035249 0.498133 5.71481)
(-0.0032388 0.498132 -5.219)
(-0.00322501 0.498132 5.219)
(-0.0029375 0.498132 -4.72319)
(-0.00292497 0.498132 4.72319)
(-0.00263635 0.498133 -4.22739)
(-0.00262511 0.498133 4.22739)
(-0.00233528 0.49814 -3.73158)
(-0.00232535 0.49814 3.73158)
(-0.00203454 0.498178 -3.23575)
(-0.00202588 0.498178 3.23575)
(-0.00173502 0.498313 -2.73987)
(-0.00172763 0.498313 2.73987)
(-0.00143866 0.49867 -2.24377)
(-0.00143254 0.49867 2.24377)
(-0.00114833 0.499389 -1.74717)
(-0.00114352 0.499389 1.74717)
(-0.000860268 0.500508 -1.24964)
(-0.00085681 0.500508 1.24964)
(-0.000494626 0.501875 -0.750818)
(-0.000492359 0.501875 0.750818)
(-0.00015221 0.490873 -0.244513)
(-0.000152088 0.490872 0.244513)
(0.00129863 0.52006 -23.474)
(0.0012474 0.52006 23.474)
(0.00735095 0.512011 -22.5985)
(0.00730967 0.512011 22.5986)
(0.0116677 0.508937 -22.0915)
(0.0116274 0.508938 22.0915)
(0.0127103 0.509308 -22.1377)
(0.0126708 0.509309 22.1377)
(0.0119995 0.508951 -22.1865)
(0.0119609 0.508952 22.1865)
(0.0105203 0.500988 -21.6853)
(0.0104831 0.500988 21.6854)
(0.00887911 0.500236 -21.2022)
(0.00884409 0.500236 21.2022)
(0.00791106 0.496832 -20.1985)
(0.00787659 0.496833 20.1985)
(0.00855986 0.492158 -19.2293)
(0.00852246 0.492159 19.2293)
(0.0087482 0.498721 -19.1953)
(0.00871124 0.498721 19.1953)
(0.00750587 0.502412 -19.1734)
(0.00747179 0.502412 19.1734)
(0.00692395 0.499511 -18.6758)
(0.00689077 0.499511 18.6758)
(0.00696584 0.498893 -18.1791)
(0.00693349 0.498893 18.1791)
(0.00681036 0.499615 -17.6834)
(0.00677888 0.499615 17.6834)
(0.00666724 0.499798 -17.1258)
(0.00663676 0.499798 17.1258)
(0.00667926 0.499682 -16.6277)
(0.00664976 0.499682 16.6277)
(0.0064994 0.500199 -16.1867)
(0.00647077 0.500199 16.1867)
(0.00621024 0.499835 -15.6892)
(0.00618232 0.499835 15.6892)
(0.00600271 0.499844 -15.1916)
(0.00597546 0.499844 15.1916)
(0.00580621 0.499855 -14.694)
(0.00577987 0.499855 14.694)
(0.00561145 0.499865 -14.1964)
(0.00558623 0.499865 14.1964)
(0.00541675 0.499874 -13.6988)
(0.00539247 0.499874 13.6988)
(0.0052221 0.499883 -13.2012)
(0.00519855 0.499883 13.2012)
(0.00502714 0.499891 -12.7036)
(0.00500439 0.499891 12.7036)
(0.00483252 0.499898 -12.2059)
(0.00481069 0.499899 12.2059)
(0.00463836 0.499906 -11.7083)
(0.00461745 0.499906 11.7083)
(0.00444434 0.499912 -11.2106)
(0.00442435 0.499912 11.2106)
(0.00425018 0.499918 -10.713)
(0.00423115 0.499918 10.713)
(0.00405604 0.499922 -10.2153)
(0.0040379 0.499922 10.2153)
(0.00386177 0.499926 -9.71766)
(0.00384441 0.499926 9.71766)
(0.00366719 0.499929 -9.21999)
(0.0036506 0.499929 9.21999)
(0.00347267 0.49993 -8.72232)
(0.00345697 0.49993 8.72232)
(0.00327842 0.499931 -8.22465)
(0.00326367 0.499932 8.22465)
(0.00308407 0.499932 -7.72698)
(0.00307025 0.499932 7.72698)
(0.0028897 0.499933 -7.2293)
(0.00287675 0.499933 7.2293)
(0.00269516 0.499934 -6.73163)
(0.00268303 0.499934 6.73163)
(0.00250055 0.499934 -6.23396)
(0.00248929 0.499934 6.23396)
(0.00230597 0.499933 -5.73628)
(0.00229561 0.499933 5.73628)
(0.0021115 0.499933 -5.23861)
(0.00210207 0.499933 5.23861)
(0.00191688 0.499933 -4.74094)
(0.00190835 0.499933 4.74094)
(0.00172223 0.499934 -4.24326)
(0.00171456 0.499934 4.24326)
(0.00152745 0.499941 -3.74559)
(0.00152063 0.499941 3.74559)
(0.00133224 0.499978 -3.2479)
(0.00132629 0.499979 3.2479)
(0.00113579 0.500114 -2.75015)
(0.00113072 0.500114 2.75015)
(0.000936337 0.500472 -2.2522)
(0.000932137 0.500472 2.2522)
(0.000732978 0.501196 -1.75373)
(0.00072961 0.501196 1.75373)
(0.000535685 0.502322 -1.25433)
(0.000533134 0.502322 1.25433)
(0.000401388 0.503689 -0.753628)
(0.000399598 0.50369 0.753628)
(0.000173751 0.492552 -0.245383)
(0.000173423 0.492552 0.245383)
(-0.0240509 0.520925 -23.5174)
(-0.0240289 0.520926 23.5174)
(-0.0109687 0.512203 -22.6164)
(-0.0109418 0.512202 22.6164)
(-0.00117075 0.509477 -22.1174)
(-0.0011481 0.509476 22.1174)
(0.00106532 0.509419 -22.1511)
(0.00108929 0.509419 22.1511)
(-1.07466e-06 0.509398 -22.2155)
(2.23284e-05 0.509397 22.2155)
(-0.00219513 0.501528 -21.7258)
(-0.00217238 0.501528 21.7258)
(-0.00383492 0.500351 -21.23)
(-0.0038142 0.500351 21.23)
(-0.00441432 0.497561 -20.2233)
(-0.00439576 0.497561 20.2233)
(-0.00411651 0.4932 -19.2505)
(-0.00409975 0.4932 19.2505)
(-0.00406307 0.49926 -19.2171)
(-0.00404706 0.49926 19.2171)
(-0.00454276 0.502655 -19.1954)
(-0.0045267 0.502654 19.1954)
(-0.00460314 0.499931 -18.6976)
(-0.00458756 0.499931 18.6976)
(-0.00424453 0.499278 -18.2)
(-0.00422943 0.499277 18.2)
(-0.00400402 0.499973 -17.7036)
(-0.00398915 0.499973 17.7036)
(-0.00377319 0.500178 -17.1406)
(-0.0037585 0.500177 17.1406)
(-0.00352886 0.500073 -16.6418)
(-0.00351445 0.500072 16.6418)
(-0.00339354 0.500633 -16.2049)
(-0.00337966 0.500633 16.2049)
(-0.00332378 0.500251 -15.7068)
(-0.00331053 0.500251 15.7068)
(-0.00322234 0.500277 -15.2087)
(-0.00320954 0.500277 15.2087)
(-0.00311773 0.500291 -14.7105)
(-0.00310524 0.500291 14.7105)
(-0.0030134 0.500302 -14.2124)
(-0.00300119 0.500302 14.2124)
(-0.00290918 0.500311 -13.7142)
(-0.00289736 0.500311 13.7142)
(-0.00280495 0.50032 -13.216)
(-0.00279358 0.50032 13.216)
(-0.00270063 0.500328 -12.7179)
(-0.0026897 0.500328 12.7179)
(-0.00259597 0.500335 -12.2197)
(-0.00258547 0.500335 12.2197)
(-0.0024913 0.500342 -11.7215)
(-0.00248119 0.500342 11.7215)
(-0.0023865 0.500348 -11.2232)
(-0.00237674 0.500348 11.2232)
(-0.00228163 0.500353 -10.725)
(-0.00227225 0.500353 10.725)
(-0.00217691 0.500358 -10.2268)
(-0.00216799 0.500358 10.2268)
(-0.00207266 0.500361 -9.72859)
(-0.00206428 0.500361 9.72859)
(-0.00196848 0.500364 -9.23036)
(-0.00196058 0.500364 9.23036)
(-0.00186429 0.500365 -8.73213)
(-0.00185677 0.500365 8.73213)
(-0.00175988 0.500367 -8.2339)
(-0.00175272 0.500366 8.2339)
(-0.00165544 0.500367 -7.73567)
(-0.00164868 0.500367 7.73567)
(-0.00155117 0.500368 -7.23744)
(-0.00154486 0.500368 7.23744)
(-0.00144721 0.500368 -6.73921)
(-0.00144135 0.500368 6.73921)
(-0.00134332 0.500368 -6.24097)
(-0.00133788 0.500368 6.24097)
(-0.00123955 0.500368 -5.74274)
(-0.00123449 0.500368 5.74274)
(-0.00113564 0.500368 -5.24451)
(-0.00113095 0.500368 5.24451)
(-0.00103176 0.500368 -4.74628)
(-0.00102747 0.500368 4.74628)
(-0.000927967 0.500369 -4.24804)
(-0.00092411 0.500369 4.24804)
(-0.000824489 0.500376 -3.74981)
(-0.000821081 0.500376 3.74981)
(-0.00072153 0.500413 -3.25156)
(-0.00071856 0.500413 3.25156)
(-0.000619856 0.500548 -2.75326)
(-0.000617302 0.500548 2.75326)
(-0.000520622 0.500907 -2.25474)
(-0.000518491 0.500907 2.25474)
(-0.000422782 0.501632 -1.75572)
(-0.000421103 0.501632 1.75572)
(-0.000316185 0.502762 -1.25576)
(-0.000314969 0.502762 1.25576)
(-0.000178482 0.504133 -0.754484)
(-0.000177689 0.504132 0.754484)
(-5.48087e-05 0.492969 -0.245653)
(-5.46582e-05 0.492969 0.245653)
(-0.034192 0.521301 -23.4801)
(-0.0341953 0.521301 23.4801)
(-0.00894209 0.512442 -22.6064)
(-0.00894825 0.512441 22.6064)
(0.00823066 0.509021 -22.1144)
(0.00822451 0.509021 22.1144)
(0.0113741 0.509012 -22.1618)
(0.011368 0.509012 22.1618)
(0.00943679 0.509137 -22.2252)
(0.00943176 0.509136 22.2252)
(0.0060572 0.50122 -21.7229)
(0.00605182 0.50122 21.7229)
(0.00362558 0.500521 -21.2387)
(0.00361961 0.500521 21.2387)
(0.00240346 0.497989 -20.2312)
(0.00239689 0.497989 20.2312)
(0.00154774 0.493584 -19.2572)
(0.00154149 0.493584 19.2572)
(0.000959133 0.499307 -19.2239)
(0.000953065 0.499307 19.2239)
(0.000540245 0.502566 -19.2023)
(0.00053453 0.502566 19.2023)
(0.000532527 0.499924 -18.7043)
(0.000527038 0.499924 18.7043)
(0.000746365 0.499272 -18.2064)
(0.000740952 0.499272 18.2064)
(0.000920606 0.499963 -17.7097)
(0.000915588 0.499963 17.7097)
(0.00101538 0.500249 -17.1471)
(0.00101069 0.500249 17.1471)
(0.00106318 0.500149 -16.648)
(0.00105863 0.500149 16.648)
(0.00106059 0.500653 -16.2104)
(0.00105613 0.500653 16.2104)
(0.00103442 0.500259 -15.7121)
(0.00103004 0.500259 15.7121)
(0.00100646 0.50029 -15.2138)
(0.00100222 0.50029 15.2138)
(0.000976284 0.500306 -14.7155)
(0.000972251 0.500306 14.7155)
(0.000944555 0.500317 -14.2172)
(0.000940742 0.500317 14.2172)
(0.00091152 0.500325 -13.7188)
(0.000907889 0.500325 13.7188)
(0.000878405 0.500333 -13.2205)
(0.000874879 0.500333 13.2205)
(0.00084558 0.50034 -12.7221)
(0.000842133 0.50034 12.7221)
(0.000812968 0.500347 -12.2237)
(0.00080965 0.500347 12.2237)
(0.000780629 0.500353 -11.7254)
(0.000777501 0.500353 11.7254)
(0.00074895 0.500358 -11.227)
(0.000745973 0.500358 11.227)
(0.000717542 0.500363 -10.7286)
(0.000714631 0.500363 10.7286)
(0.00068593 0.500367 -10.2302)
(0.000683045 0.500367 10.2302)
(0.00065392 0.500371 -9.73182)
(0.000651106 0.50037 9.73182)
(0.000621823 0.500373 -9.23343)
(0.000619166 0.500373 9.23343)
(0.000589786 0.500374 -8.73504)
(0.000587334 0.500374 8.73504)
(0.000557897 0.500376 -8.23664)
(0.000555612 0.500376 8.23664)
(0.000525953 0.500376 -7.73824)
(0.000523783 0.500376 7.73824)
(0.000493623 0.500377 -7.23984)
(0.000491551 0.500377 7.23984)
(0.000460967 0.500377 -6.74144)
(0.000459013 0.500377 6.74144)
(0.00042817 0.500377 -6.24304)
(0.000426367 0.500377 6.24304)
(0.000395394 0.500377 -5.74465)
(0.000393773 0.500377 5.74465)
(0.000362705 0.500377 -5.24625)
(0.000361269 0.500377 5.24625)
(0.000329939 0.500377 -4.74785)
(0.000328658 0.500377 4.74785)