/*--------------------------------*- C++ -*----------------------------------*\
| =========                 |                                                 |
| \\      /  F ield         | OpenFOAM: The Open Source CFD Toolbox           |
|  \\    /   O peration     | Version:  2206                                  |
|   \\  /    A nd           | Website:  www.openfoam.com                      |
|    \\/     M anipulation  |                                                 |
\*---------------------------------------------------------------------------*/
FoamFile
{
    version     2.0;
    format      ascii;
    arch        "LSB;label=32;scalar=64";
    class       volVectorField;
    location    "0";
    object      Urel;
}
// * * * * * * * * * * * * * * * * * * * * * * * * * * * * * * * * * * * * * //

dimensions      [0 1 -1 0 0 0 0];

internalField   nonuniform List<vector> 
50904
(
(-50.001204 0.004673386 0)
(-50.001178 0.004586549 0)
(-50.001104 0.0046607282 0)
(-50.001082 0.0045819812 0)
(-50.001207 0.0046734154 0)
(-50.00118 0.0045864245 0)
(-50.001106 0.0046607942 0)
(-50.001085 0.0045819096 0)
(-50.00121 0.0046734523 0)
(-50.001183 0.0045862674 0)
(-50.001109 0.0046608771 0)
(-50.001087 0.0045818191 0)
(-50.001214 0.0046734989 0)
(-50.001188 0.0045860693 0)
(-50.001113 0.0046609818 0)
(-50.001091 0.004581705 0)
(-50.00122 0.0046735575 0)
(-50.001193 0.0045858193 0)
(-50.001117 0.0046611138 0)
(-50.001095 0.0045815611 0)
(-50.001226 0.0046736316 0)
(-50.001199 0.0045855041 0)
(-50.001123 0.0046612803 0)
(-50.001101 0.0045813796 0)
(-50.001235 0.0046737349 0)
(-50.001207 0.0045851121 0)
(-50.00113 0.0046615239 0)
(-50.001107 0.0045811781 0)
(-50.001245 0.0046738754 0)
(-50.001218 0.0045846239 0)
(-50.001138 0.004661906 0)
(-50.001116 0.0045809815 0)
(-50.001258 0.0046740473 0)
(-50.00123 0.0045840029 0)
(-50.001149 0.0046624164 0)
(-50.001126 0.0045807565 0)
(-50.001274 0.0046743405 0)
(-50.001246 0.0045833028 0)
(-50.001162 0.0046632325 0)
(-50.001139 0.004580623 0)
(-50.001293 0.0046747295 0)
(-50.001264 0.0045824547 0)
(-50.001178 0.0046643788 0)
(-50.001154 0.0045805682 0)
(-50.001317 0.0046753269 0)
(-50.001286 0.0045814848 0)
(-50.001197 0.0046660442 0)
(-50.001172 0.0045806923 0)
(-50.001344 0.0046763155 0)
(-50.001313 0.0045804985 0)
(-50.001219 0.004668584 0)
(-50.001194 0.0045812424 0)
(-50.001377 0.0046779655 0)
(-50.001344 0.0045797427 0)
(-50.001245 0.0046723411 0)
(-50.001218 0.0045825772 0)
(-50.001415 0.0046810315 0)
(-50.001381 0.0045796464 0)
(-50.001274 0.0046782009 0)
(-50.001246 0.0045851868 0)
(-50.001454 0.0046856075 0)
(-50.001417 0.0045806615 0)
(-50.001303 0.004685838 0)
(-50.001273 0.0045891843 0)
(-50.001489 0.0046918165 0)
(-50.001451 0.0045832291 0)
(-50.001327 0.0046948329 0)
(-50.001296 0.0045945539 0)
(-50.00152 0.0046999673 0)
(-50.00148 0.0045876585 0)
(-50.001346 0.0047052009 0)
(-50.001314 0.0046013516 0)
(-50.001546 0.0047102602 0)
(-50.001504 0.0045942674 0)
(-50.001358 0.0047169441 0)
(-50.001326 0.0046096186 0)
(-50.001567 0.0047220457 0)
(-50.001525 0.0046025179 0)
(-50.001366 0.0047299 0)
(-50.001332 0.0046192015 0)
(-50.001587 0.0047341981 0)
(-50.001544 0.004611177 0)
(-50.001372 0.0047434167 0)
(-50.001338 0.0046293894 0)
(-50.00161 0.004745384 0)
(-50.001566 0.0046189142 0)
(-50.001381 0.0047569391 0)
(-50.001347 0.0046394739 0)
(-50.001635 0.004753849 0)
(-50.00159 0.0046243781 0)
(-50.001395 0.0047685319 0)
(-50.00136 0.0046479131 0)
(-50.001657 0.0047590738 0)
(-50.00161 0.0046273763 0)
(-50.001409 0.0047773006 0)
(-50.001373 0.0046540917 0)
(-50.001676 0.0047619564 0)
(-50.001628 0.0046286072 0)
(-50.001422 0.0047838688 0)
(-50.001386 0.0046585224 0)
(-50.001692 0.0047632282 0)
(-50.001644 0.0046286687 0)
(-50.001435 0.0047887017 0)
(-50.001397 0.004661606 0)
(-50.001706 0.0047635139 0)
(-50.001657 0.0046280563 0)
(-50.001446 0.0047922792 0)
(-50.001408 0.0046637537 0)
(-50.001717 0.0047632804 0)
(-50.001668 0.0046271248 0)
(-50.001455 0.004795002 0)
(-50.001417 0.0046652909 0)
(-50.001727 0.0047627514 0)
(-50.001677 0.0046260698 0)
(-50.001464 0.0047970189 0)
(-50.001425 0.0046663439 0)
(-50.001735 0.0047620766 0)
(-50.001685 0.0046249983 0)
(-50.001471 0.0047985026 0)
(-50.001432 0.0046670561 0)
(-50.001741 0.0047614118 0)
(-50.001691 0.0046240351 0)
(-50.001476 0.0047996164 0)
(-50.001437 0.0046675565 0)
(-50.001746 0.0047607916 0)
(-50.001696 0.0046231826 0)
(-50.001481 0.0048004573 0)
(-50.001442 0.0046679078 0)
(-50.00175 0.0047602175 0)
(-50.0017 0.0046224364 0)
(-50.001485 0.0048010822 0)
(-50.001446 0.0046681441 0)
(-50.001754 0.0047597402 0)
(-50.001703 0.0046218203 0)
(-50.001488 0.0048015682 0)
(-50.001449 0.0046683208 0)
(-50.001756 0.0047593617 0)
(-50.001706 0.0046213317 0)
(-50.001491 0.0048019534 0)
(-50.001451 0.0046684608 0)
(-50.001758 0.0047590617 0)
(-50.001708 0.0046209442 0)
(-50.001492 0.0048022587 0)
(-50.001453 0.0046685716 0)
(-50.001015 0.0046492781 0)
(-50.000998 0.0045781699 0)
(-50.00095 0.0046423032 0)
(-50.000936 0.0045758085 0)
(-50.000927 0.0046406817 0)
(-50.000913 0.0045759283 0)
(-50.000915 0.004639946 0)
(-50.000901 0.0045761441 0)
(-50.000908 0.0046395287 0)
(-50.000894 0.0045763439 0)
(-50.000903 0.0046392397 0)
(-50.000889 0.0045765301 0)
(-50.000899 0.0046390024 0)
(-50.000885 0.0045767168 0)
(-50.001016 0.0046493614 0)
(-50.001 0.0045781319 0)
(-50.000951 0.0046423959 0)
(-50.000937 0.0045757927 0)
(-50.000928 0.0046407796 0)
(-50.000914 0.0045759232 0)
(-50.000916 0.0046400471 0)
(-50.000902 0.0045761449 0)
(-50.000909 0.004639632 0)
(-50.000895 0.004576348 0)
(-50.000904 0.0046393444 0)
(-50.00089 0.0045765362 0)
(-50.0009 0.0046391082 0)
(-50.000886 0.0045767239 0)
(-50.001019 0.0046494661 0)
(-50.001002 0.0045780838 0)
(-50.000953 0.0046425125 0)
(-50.000939 0.0045757726 0)
(-50.00093 0.0046409029 0)
(-50.000916 0.0045759165 0)
(-50.000917 0.0046401744 0)
(-50.000903 0.0045761457 0)
(-50.00091 0.0046397619 0)
(-50.000896 0.004576353 0)
(-50.000905 0.0046394762 0)
(-50.000891 0.0045765436 0)
(-50.000902 0.0046392413 0)
(-50.000888 0.0045767326 0)
(-50.001021 0.0046495983 0)
(-50.001005 0.0045780231 0)
(-50.000955 0.0046426596 0)
(-50.000941 0.0045757472 0)
(-50.000932 0.0046410583 0)
(-50.000918 0.0045759081 0)
(-50.000919 0.004640335 0)
(-50.000905 0.0045761466 0)
(-50.000912 0.0046399258 0)
(-50.000898 0.0045763592 0)
(-50.000907 0.0046396423 0)
(-50.000893 0.0045765529 0)
(-50.000903 0.0046394092 0)
(-50.000889 0.0045767437 0)
(-50.001025 0.0046497648 0)
(-50.001008 0.0045779465 0)
(-50.000958 0.0046428449 0)
(-50.000944 0.004575715 0)
(-50.000934 0.0046412542 0)
(-50.00092 0.0045758973 0)
(-50.000922 0.0046405373 0)
(-50.000908 0.0045761476 0)
(-50.000914 0.0046401323 0)
(-50.0009 0.0045763669 0)
(-50.000909 0.0046398518 0)
(-50.000895 0.0045765645 0)
(-50.000906 0.0046396209 0)
(-50.000892 0.0045767577 0)
(-50.001029 0.0046499748 0)
(-50.001013 0.0045778498 0)
(-50.000961 0.0046430785 0)
(-50.000947 0.0045756743 0)
(-50.000937 0.004641501 0)
(-50.000923 0.0045758834 0)
(-50.000925 0.0046407922 0)
(-50.000911 0.0045761487 0)
(-50.000917 0.0046403925 0)
(-50.000903 0.0045763765 0)
(-50.000912 0.0046401158 0)
(-50.000898 0.004576579 0)
(-50.000909 0.0046398879 0)
(-50.000894 0.0045767751 0)
(-50.001035 0.004650291 0)
(-50.001018 0.0045777718 0)
(-50.000965 0.0046434295 0)
(-50.000952 0.004575676 0)
(-50.000941 0.0046418718 0)
(-50.000927 0.004575923 0)
(-50.000928 0.0046411749 0)
(-50.000914 0.0045762093 0)
(-50.000921 0.0046407829 0)
(-50.000907 0.004576449 0)
(-50.000916 0.0046405118 0)
(-50.000901 0.0045766588 0)
(-50.000912 0.0046402881 0)
(-50.000898 0.0045768593 0)
(-50.001042 0.0046508345 0)
(-50.001025 0.0045777845 0)
(-50.000971 0.0046440795 0)
(-50.000957 0.0045758351 0)
(-50.000946 0.0046425681 0)
(-50.000932 0.004576147 0)
(-50.000933 0.0046418974 0)
(-50.000919 0.0045764687 0)
(-50.000925 0.0046415216 0)
(-50.000911 0.0045767289 0)
(-50.00092 0.0046412616 0)
(-50.000906 0.0045769513 0)
(-50.000916 0.0046410464 0)
(-50.000902 0.0045771601 0)
(-50.00105 0.0046516036 0)
(-50.001033 0.0045778633 0)
(-50.000978 0.0046450436 0)
(-50.000963 0.0045761363 0)
(-50.000952 0.0046436105 0)
(-50.000938 0.0045765438 0)
(-50.000939 0.0046429833 0)
(-50.000924 0.0045769174 0)
(-50.000931 0.0046426343 0)
(-50.000916 0.0045772079 0)
(-50.000926 0.0046423927 0)
(-50.000911 0.0045774492 0)
(-50.000922 0.0046421916 0)
(-50.000907 0.0045776709 0)
(-50.00106 0.0046528163 0)
(-50.001043 0.0045781658 0)
(-50.000986 0.0046465496 0)
(-50.000971 0.004576757 0)
(-50.00096 0.0046452308 0)
(-50.000945 0.0045772991 0)
(-50.000946 0.0046446663 0)
(-50.000931 0.0045777455 0)
(-50.000938 0.0046443554 0)
(-50.000923 0.0045780782 0)
(-50.000932 0.0046441394 0)
(-50.000918 0.0045783462 0)
(-50.000929 0.0046439575 0)
(-50.000914 0.0045785859 0)
(-50.001073 0.0046545943 0)
(-50.001055 0.0045787636 0)
(-50.000995 0.004648817 0)
(-50.000981 0.0045778465 0)
(-50.000968 0.0046476853 0)
(-50.000954 0.0045785927 0)
(-50.000954 0.0046472223 0)
(-50.000939 0.004579149 0)
(-50.000946 0.0046469724 0)
(-50.000931 0.0045795456 0)
(-50.000941 0.004646797 0)
(-50.000925 0.004579854 0)
(-50.000937 0.0046466452 0)
(-50.000922 0.0045801218 0)
(-50.001088 0.0046572005 0)
(-50.001069 0.0045798141 0)
(-50.001007 0.0046521632 0)
(-50.000993 0.0045796051 0)
(-50.000979 0.0046513125 0)
(-50.000964 0.0045806428 0)
(-50.000965 0.0046510009 0)
(-50.000949 0.0045813552 0)
(-50.000956 0.0046508408 0)
(-50.000941 0.0045818424 0)
(-50.000951 0.0046507242 0)
(-50.000935 0.004582208 0)
(-50.000947 0.0046506148 0)
(-50.000931 0.0045825149 0)
(-50.001105 0.0046611713 0)
(-50.001086 0.0045816974 0)
(-50.001021 0.0046572948 0)
(-50.001006 0.00458251 0)
(-50.000992 0.0046568747 0)
(-50.000976 0.0045839629 0)
(-50.000977 0.0046567931 0)
(-50.000961 0.0045848972 0)
(-50.000968 0.0046567678 0)
(-50.000952 0.0045855126 0)
(-50.000962 0.0046567375 0)
(-50.000946 0.0045859586 0)
(-50.000958 0.0046566883 0)
(-50.000942 0.0045863201 0)
(-50.001126 0.0046668942 0)
(-50.001106 0.0045847736 0)
(-50.001039 0.0046646941 0)
(-50.001023 0.0045870537 0)
(-50.001008 0.0046649363 0)
(-50.000992 0.0045891228 0)
(-50.000992 0.0046652087 0)
(-50.000975 0.0045903806 0)
(-50.000982 0.0046653824 0)
(-50.000966 0.004591171 0)
(-50.000976 0.0046654709 0)
(-50.00096 0.0045917145 0)
(-50.000972 0.0046654985 0)
(-50.000956 0.0045921329 0)
(-50.00115 0.0046752937 0)
(-50.001129 0.0045895218 0)
(-50.001061 0.0046752699 0)
(-50.001043 0.0045937215 0)
(-50.001027 0.0046764482 0)
(-50.001009 0.0045966476 0)
(-50.001009 0.004677225 0)
(-50.000992 0.0045983515 0)
(-50.000999 0.0046776766 0)
(-50.000982 0.0045993726 0)
(-50.000993 0.0046779215 0)
(-50.000975 0.0046000304 0)
(-50.000989 0.004678038 0)
(-50.000971 0.0046004987 0)
(-50.001174 0.0046856233 0)
(-50.001152 0.0045957275 0)
(-50.001083 0.0046878226 0)
(-50.001064 0.004601837 0)
(-50.001046 0.0046900038 0)
(-50.001027 0.0046056519 0)
(-50.001026 0.0046913262 0)
(-50.001008 0.0046078219 0)
(-50.001016 0.004692083 0)
(-50.000997 0.0046090855 0)
(-50.001009 0.0046925046 0)
(-50.000991 0.0046098637 0)
(-50.001005 0.0046927259 0)
(-50.000987 0.0046103825 0)
(-50.001194 0.0046968195 0)
(-50.001171 0.0046028869 0)
(-50.001102 0.0047007231 0)
(-50.001082 0.004610415 0)
(-50.001063 0.0047037051 0)
(-50.001043 0.0046149196 0)
(-50.001042 0.0047054683 0)
(-50.001023 0.004617454 0)
(-50.001031 0.0047064722 0)
(-50.001012 0.0046189048 0)
(-50.001024 0.0047070361 0)
(-50.001005 0.0046197702 0)
(-50.00102 0.0047073406 0)
(-50.001001 0.0046203159 0)
(-50.001211 0.0047086068 0)
(-50.001185 0.0046108579 0)
(-50.001118 0.0047133994 0)
(-50.001097 0.0046191212 0)
(-50.001077 0.0047168053 0)
(-50.001057 0.00462399 0)
(-50.001056 0.0047188099 0)
(-50.001036 0.0046267182 0)
(-50.001045 0.0047199524 0)
(-50.001024 0.0046282649 0)
(-50.001038 0.0047205988 0)
(-50.001018 0.0046291679 0)
(-50.001034 0.004720955 0)
(-50.001013 0.0046297121 0)
(-50.001223 0.0047208854 0)
(-50.001196 0.0046196427 0)
(-50.001131 0.004725631 0)
(-50.001109 0.004627847 0)
(-50.00109 0.0047289235 0)
(-50.001068 0.0046326074 0)
(-50.001069 0.0047308559 0)
(-50.001047 0.0046352612 0)
(-50.001057 0.0047319616 0)
(-50.001036 0.0046367614 0)
(-50.00105 0.0047325964 0)
(-50.001029 0.0046376348 0)
(-50.001046 0.0047329598 0)
(-50.001025 0.004638158 0)
(-50.001231 0.0047335683 0)
(-50.001204 0.0046291329 0)
(-50.001142 0.0047376023 0)
(-50.001118 0.0046366406 0)
(-50.001101 0.0047403416 0)
(-50.001078 0.0046408892 0)
(-50.00108 0.004741934 0)
(-50.001058 0.0046432336 0)
(-50.001069 0.004742838 0)
(-50.001046 0.0046445521 0)
(-50.001062 0.0047433502 0)
(-50.00104 0.0046453163 0)
(-50.001058 0.0047436352 0)
(-50.001035 0.0046457706 0)
(-50.001239 0.00474669 0)
(-50.00121 0.0046391602 0)
(-50.001151 0.0047497262 0)
(-50.001126 0.0046457461 0)
(-50.001111 0.0047517821 0)
(-50.001087 0.0046493788 0)
(-50.001091 0.0047529673 0)
(-50.001067 0.00465136 0)
(-50.001079 0.0047536328 0)
(-50.001056 0.0046524674 0)
(-50.001073 0.0047540012 0)
(-50.001049 0.0046531054 0)
(-50.001068 0.0047541951 0)
(-50.001045 0.0046534805 0)
(-50.001247 0.0047603641 0)
(-50.001217 0.0046496667 0)
(-50.00116 0.0047627085 0)
(-50.001133 0.0046556349 0)
(-50.001121 0.0047643395 0)
(-50.001095 0.0046588904 0)
(-50.0011 0.0047652685 0)
(-50.001075 0.0046606441 0)
(-50.001089 0.0047657697 0)
(-50.001064 0.0046616052 0)
(-50.001082 0.0047660217 0)
(-50.001058 0.0046621393 0)
(-50.001078 0.0047661243 0)
(-50.001054 0.0046624332 0)
(-50.001256 0.0047731648 0)
(-50.001225 0.0046594799 0)
(-50.001168 0.0047755899 0)
(-50.001141 0.0046655397 0)
(-50.001129 0.004777278 0)
(-50.001102 0.0046688483 0)
(-50.001108 0.0047782382 0)
(-50.001082 0.0046706257 0)
(-50.001097 0.00477875 0)
(-50.001071 0.0046715898 0)
(-50.001091 0.0047790011 0)
(-50.001065 0.0046721158 0)
(-50.001087 0.0047790971 0)
(-50.001061 0.0046723962 0)
(-50.001265 0.0047837989 0)
(-50.001233 0.0046675005 0)
(-50.001176 0.0047871022 0)
(-50.001147 0.0046743247 0)
(-50.001135 0.004789218 0)
(-50.001108 0.0046780034 0)
(-50.001115 0.004790405 0)
(-50.001087 0.0046799724 0)
(-50.001103 0.0047910396 0)
(-50.001076 0.0046810368 0)
(-50.001097 0.00479136 0)
(-50.00107 0.0046816165 0)
(-50.001093 0.0047914975 0)
(-50.001066 0.0046819267 0)
(-50.001274 0.0047926335 0)
(-50.001241 0.0046740385 0)
(-50.001182 0.0047973612 0)
(-50.001153 0.0046820814 0)
(-50.001141 0.004800147 0)
(-50.001113 0.0046863356 0)
(-50.00112 0.0048016847 0)
(-50.001092 0.0046886023 0)
(-50.001108 0.0048025102 0)
(-50.00108 0.0046898262 0)
(-50.001102 0.0048029398 0)
(-50.001074 0.0046904952 0)
(-50.001098 0.0048031437 0)
(-50.00107 0.0046908583 0)
(-50.001283 0.0047998709 0)
(-50.001249 0.0046793109 0)
(-50.001188 0.0048062964 0)
(-50.001158 0.0046888219 0)
(-50.001146 0.0048098717 0)
(-50.001117 0.0046937645 0)
(-50.001124 0.0048118207 0)
(-50.001095 0.0046963869 0)
(-50.001112 0.0048128697 0)
(-50.001084 0.0046978023 0)
(-50.001106 0.004813427 0)
(-50.001077 0.0046985793 0)
(-50.001102 0.0048137086 0)
(-50.001073 0.0046990069 0)
(-50.00129 0.0048058065 0)
(-50.001257 0.0046835651 0)
(-50.001194 0.0048140015 0)
(-50.001163 0.0046946034 0)
(-50.00115 0.0048183952 0)
(-50.00112 0.0047002583 0)
(-50.001127 0.0048207689 0)
(-50.001098 0.0047032483 0)
(-50.001115 0.0048220479 0)
(-50.001086 0.0047048612 0)
(-50.001108 0.0048227359 0)
(-50.001079 0.0047057495 0)
(-50.001104 0.0048230961 0)
(-50.001075 0.0047062434 0)
(-50.001297 0.0048107312 0)
(-50.001263 0.0046870418 0)
(-50.001198 0.0048206278 0)
(-50.001167 0.0046995321 0)
(-50.001153 0.0048258057 0)
(-50.001123 0.0047058625 0)
(-50.00113 0.0048285856 0)
(-50.0011 0.0047092004 0)
(-50.001118 0.0048300837 0)
(-50.001088 0.0047109999 0)
(-50.001111 0.0048308954 0)
(-50.001081 0.0047119928 0)
(-50.001107 0.0048313292 0)
(-50.001077 0.0047125482 0)
(-50.001303 0.004814687 0)
(-50.001269 0.0046897874 0)
(-50.001202 0.0048260928 0)
(-50.001171 0.0047035418 0)
(-50.001156 0.0048319663 0)
(-50.001125 0.0047104627 0)
(-50.001132 0.0048351063 0)
(-50.001102 0.004714105 0)
(-50.00112 0.0048367984 0)
(-50.00109 0.0047160676 0)
(-50.001113 0.0048377191 0)
(-50.001083 0.0047171516 0)
(-50.001109 0.0048382173 0)
(-50.001079 0.0047177605 0)
(-50.001309 0.0048178638 0)
(-50.001274 0.0046919724 0)
(-50.001205 0.0048306125 0)
(-50.001173 0.0047068549 0)
(-50.001158 0.0048371037 0)
(-50.001127 0.0047143016 0)
(-50.001134 0.0048405631 0)
(-50.001104 0.0047182147 0)
(-50.001121 0.0048424267 0)
(-50.001091 0.0047203221 0)
(-50.001114 0.0048434435 0)
(-50.001084 0.0047214866 0)
(-50.00111 0.004843998 0)
(-50.00108 0.0047221423 0)
(-50.001313 0.0048204029 0)
(-50.001278 0.0046937228 0)
(-50.001208 0.0048343046 0)
(-50.001176 0.004709599 0)
(-50.00116 0.0048413256 0)
(-50.001129 0.0047175081 0)
(-50.001136 0.0048450585 0)
(-50.001105 0.0047216591 0)
(-50.001123 0.0048470689 0)
(-50.001092 0.0047238935 0)
(-50.001115 0.0048481677 0)
(-50.001085 0.0047251286 0)
(-50.001111 0.0048487702 0)
(-50.001081 0.0047258254 0)
(-50.001316 0.0048224169 0)
(-50.001281 0.0046951015 0)
(-50.00121 0.0048372568 0)
(-50.001178 0.0047117742 0)
(-50.001161 0.0048447099 0)
(-50.00113 0.0047200562 0)
(-50.001137 0.0048486663 0)
(-50.001106 0.0047243995 0)
(-50.001124 0.0048507963 0)
(-50.001093 0.0047267365 0)
(-50.001116 0.0048519618 0)
(-50.001086 0.0047280285 0)
(-50.001112 0.0048526032 0)
(-50.001081 0.0047287581 0)
(-50.001319 0.0048240172 0)
(-50.001283 0.004696179 0)
(-50.001211 0.0048396446 0)
(-50.001179 0.004713508 0)
(-50.001163 0.00484746 0)
(-50.001131 0.0047220969 0)
(-50.001138 0.0048516036 0)
(-50.001107 0.0047265984 0)
(-50.001124 0.0048538339 0)
(-50.001094 0.0047290198 0)
(-50.001117 0.0048550551 0)
(-50.001086 0.0047303584 0)
(-50.001113 0.0048557288 0)
(-50.001082 0.0047311149 0)
(-50.001321 0.0048252965 0)
(-50.001285 0.0046970354 0)
(-50.001213 0.0048415735 0)
(-50.00118 0.0047149039 0)
(-50.001164 0.0048496869 0)
(-50.001132 0.0047237436 0)
(-50.001138 0.0048539841 0)
(-50.001107 0.004728374 0)
(-50.001125 0.0048562965 0)
(-50.001094 0.004730864 0)
(-50.001118 0.0048575633 0)
(-50.001087 0.0047322405 0)
(-50.001113 0.0048582633 0)
(-50.001082 0.0047330187 0)
(-50.001323 0.0048263112 0)
(-50.001287 0.0046977147 0)
(-50.001214 0.0048431034 0)
(-50.001181 0.0047160111 0)
(-50.001164 0.0048514531 0)
(-50.001133 0.0047250497 0)
(-50.001139 0.0048558722 0)
(-50.001108 0.0047297823 0)
(-50.001126 0.0048582496 0)
(-50.001095 0.0047323268 0)
(-50.001118 0.0048595525 0)
(-50.001087 0.0047337332 0)
(-50.001114 0.0048602733 0)
(-50.001083 0.0047345286 0)
(-50.001324 0.004827116 0)
(-50.001289 0.0046982535 0)
(-50.001215 0.0048443168 0)
(-50.001182 0.0047168892 0)
(-50.001165 0.0048528539 0)
(-50.001133 0.0047260857 0)
(-50.00114 0.0048573696 0)
(-50.001108 0.0047308994 0)
(-50.001126 0.0048597986 0)
(-50.001095 0.0047334869 0)
(-50.001118 0.00486113 0)
(-50.001087 0.0047349171 0)
(-50.001114 0.0048618673 0)
(-50.001083 0.004735726 0)
(-50.000896 0.0046389138 0)
(-50.000882 0.0045768487 0)
(-50.000893 0.004639039 0)
(-50.000879 0.0045770816 0)
(-50.000891 0.0046391162 0)
(-50.000877 0.0045772568 0)
(-50.000888 0.0046391323 0)
(-50.000874 0.0045774168 0)
(-50.000883 0.0046390918 0)
(-50.000869 0.0045776476 0)
(-50.000871 0.0046390381 0)
(-50.000858 0.0045782271 0)
(-50.000897 0.0046390201 0)
(-50.000883 0.0045768561 0)
(-50.000894 0.0046391464 0)
(-50.00088 0.0045770896 0)
(-50.000892 0.0046392243 0)
(-50.000878 0.0045772651 0)
(-50.000889 0.0046392411 0)
(-50.000875 0.0045774255 0)
(-50.000884 0.0046392013 0)
(-50.00087 0.0045776567 0)
(-50.000872 0.0046391477 0)
(-50.000859 0.0045782358 0)
(-50.000898 0.004639154 0)
(-50.000884 0.0045768653 0)
(-50.000896 0.0046392815 0)
(-50.000881 0.0045770994 0)
(-50.000893 0.0046393605 0)
(-50.000879 0.0045772755 0)
(-50.00089 0.0046393781 0)
(-50.000876 0.0045774363 0)
(-50.000885 0.0046393393 0)
(-50.000872 0.004577668 0)
(-50.000873 0.0046392857 0)
(-50.00086 0.0045782467 0)
(-50.0009 0.0046393228 0)
(-50.000886 0.0045768769 0)
(-50.000897 0.004639452 0)
(-50.000883 0.0045771119 0)
(-50.000895 0.0046395322 0)
(-50.000881 0.0045772885 0)
(-50.000892 0.0046395508 0)
(-50.000878 0.0045774499 0)
(-50.000887 0.0046395132 0)
(-50.000873 0.0045776822 0)
(-50.000875 0.0046394597 0)
(-50.000862 0.0045782603 0)
(-50.000902 0.0046395357 0)
(-50.000888 0.0045768914 0)
(-50.0009 0.0046396671 0)
(-50.000885 0.0045771275 0)
(-50.000897 0.0046397487 0)
(-50.000883 0.004577305 0)
(-50.000894 0.0046397686 0)
(-50.00088 0.004577467 0)
(-50.000889 0.0046397325 0)
(-50.000876 0.0045777002 0)
(-50.000877 0.0046396791 0)
(-50.000864 0.0045782775 0)
(-50.000905 0.0046398042 0)
(-50.000891 0.0045769097 0)
(-50.000902 0.0046399382 0)
(-50.000888 0.0045771472 0)
(-50.0009 0.0046400217 0)
(-50.000886 0.0045773256 0)
(-50.000897 0.0046400433 0)
(-50.000883 0.0045774885 0)
(-50.000892 0.0046400091 0)
(-50.000878 0.0045777227 0)
(-50.00088 0.0046399557 0)
(-50.000867 0.0045782991 0)
(-50.000909 0.0046402069 0)
(-50.000894 0.0045769956 0)
(-50.000906 0.0046403447 0)
(-50.000892 0.0045772354 0)
(-50.000904 0.0046404311 0)
(-50.000889 0.0045774155 0)
(-50.000901 0.0046404553 0)
(-50.000887 0.00457758 0)
(-50.000896 0.0046404245 0)
(-50.000882 0.0045778165 0)
(-50.000884 0.0046403735 0)
(-50.00087 0.004578394 0)
(-50.000913 0.0046409712 0)
(-50.000899 0.0045773008 0)
(-50.00091 0.0046411164 0)
(-50.000896 0.0045775454 0)
(-50.000908 0.0046412085 0)
(-50.000894 0.0045777292 0)
(-50.000905 0.0046412383 0)
(-50.000891 0.0045778976 0)
(-50.0009 0.0046412157 0)
(-50.000886 0.0045781398 0)
(-50.000888 0.0046411769 0)
(-50.000875 0.0045787259 0)
(-50.000919 0.004642126 0)
(-50.000904 0.0045778187 0)
(-50.000916 0.0046422823 0)
(-50.000901 0.0045780707 0)
(-50.000913 0.004642383 0)
(-50.000899 0.0045782602 0)
(-50.000911 0.0046424218 0)
(-50.000896 0.0045784346 0)
(-50.000906 0.0046424126 0)
(-50.000891 0.0045786862 0)
(-50.000894 0.0046423964 0)
(-50.00088 0.004579288 0)
(-50.000925 0.0046439075 0)
(-50.00091 0.0045787453 0)
(-50.000923 0.0046440803 0)
(-50.000908 0.0045790087 0)
(-50.00092 0.004644194 0)
(-50.000905 0.0045792071 0)
(-50.000917 0.0046442466 0)
(-50.000903 0.0045793912 0)
(-50.000912 0.0046442583 0)
(-50.000898 0.0045796582 0)
(-50.0009 0.0046442802 0)
(-50.000886 0.0045802881 0)
(-50.000933 0.0046466204 0)
(-50.000918 0.0045803004 0)
(-50.000931 0.0046468181 0)
(-50.000916 0.0045805816 0)
(-50.000928 0.0046469516 0)
(-50.000913 0.004580794 0)
(-50.000925 0.0046470254 0)
(-50.00091 0.0045809936 0)
(-50.00092 0.0046470704 0)
(-50.000906 0.0045812852 0)
(-50.000908 0.0046471557 0)
(-50.000894 0.0045819634 0)
(-50.000943 0.0046506288 0)
(-50.000928 0.0045827229 0)
(-50.000941 0.004650863 0)
(-50.000925 0.0045830304 0)
(-50.000938 0.0046510257 0)
(-50.000923 0.0045832638 0)
(-50.000935 0.0046511314 0)
(-50.00092 0.0045834866 0)
(-50.00093 0.0046512267 0)
(-50.000915 0.0045838158 0)
(-50.000918 0.0046514108 0)
(-50.000904 0.0045845693 0)
(-50.000955 0.0046567634 0)
(-50.000939 0.0045865729 0)
(-50.000952 0.0046570517 0)
(-50.000936 0.0045869194 0)
(-50.00095 0.0046572579 0)
(-50.000934 0.0045871839 0)
(-50.000947 0.0046574113 0)
(-50.000931 0.0045874412 0)
(-50.000942 0.0046575829 0)
(-50.000927 0.0045878265 0)
(-50.00093 0.0046579197 0)
(-50.000915 0.0045886948 0)
(-50.000969 0.0046656186 0)
(-50.000953 0.0045924232 0)
(-50.000966 0.0046659926 0)
(-50.00095 0.0045928334 0)
(-50.000964 0.0046662683 0)
(-50.000947 0.0045931486 0)
(-50.000961 0.0046664945 0)
(-50.000945 0.0045934586 0)
(-50.000956 0.004666778 0)
(-50.00094 0.0045939251 0)
(-50.000944 0.0046673205 0)
(-50.000928 0.0045949442 0)
(-50.000985 0.0046782315 0)
(-50.000968 0.004600847 0)
(-50.000982 0.0046787185 0)
(-50.000965 0.0046013468 0)
(-50.00098 0.0046790869 0)
(-50.000963 0.0046017333 0)
(-50.000977 0.0046794103 0)
(-50.00096 0.0046021152 0)
(-50.000972 0.0046798434 0)
(-50.000955 0.0046026895 0)
(-50.00096 0.0046806528 0)
(-50.000944 0.0046038958 0)
(-50.001002 0.0046930181 0)
(-50.000983 0.0046108036 0)
(-50.000999 0.004693619 0)
(-50.000981 0.0046113972 0)
(-50.000996 0.0046940812 0)
(-50.000978 0.004611858 0)
(-50.000993 0.0046945043 0)
(-50.000976 0.0046123139 0)
(-50.000988 0.0046950929 0)
(-50.000971 0.0046129978 0)
(-50.000976 0.0046961841 0)
(-50.000959 0.0046143902 0)
(-50.001017 0.0047077151 0)
(-50.000997 0.0046207947 0)
(-50.001014 0.0047084094 0)
(-50.000995 0.0046214674 0)
(-50.001011 0.0047089473 0)
(-50.000992 0.0046219896 0)
(-50.001008 0.0047094484 0)
(-50.00099 0.0046225033 0)
(-50.001003 0.0047101556 0)
(-50.000985 0.0046232681 0)
(-50.000991 0.0047114469 0)
(-50.000973 0.0046247779 0)
(-50.00103 0.0047213716 0)
(-50.00101 0.0046302193 0)
(-50.001027 0.0047221255 0)
(-50.001007 0.0046309494 0)
(-50.001025 0.0047227093 0)
(-50.001005 0.0046315133 0)
(-50.001022 0.004723252 0)
(-50.001002 0.0046320595 0)
(-50.001016 0.0047240159 0)
(-50.000997 0.0046328609 0)
(-50.001005 0.0047253793 0)
(-50.000986 0.0046343863 0)
(-50.001043 0.0047333377 0)
(-50.001022 0.0046386355 0)
(-50.00104 0.0047341172 0)
(-50.001019 0.004639412 0)
(-50.001038 0.0047347158 0)
(-50.001017 0.0046400027 0)
(-50.001034 0.0047352584 0)
(-50.001014 0.0046405539 0)
(-50.001029 0.0047360028 0)
(-50.001009 0.0046413343 0)
(-50.001017 0.0047372801 0)
(-50.000997 0.0046427188 0)
(-50.001054 0.00474396 0)
(-50.001032 0.0046462043 0)
(-50.001052 0.004744748 0)
(-50.001029 0.0046470297 0)
(-50.001049 0.0047453423 0)
(-50.001027 0.0046476427 0)
(-50.001046 0.0047458529 0)
(-50.001024 0.0046481783 0)
(-50.00104 0.0047465136 0)
(-50.001019 0.0046488856 0)
(-50.001029 0.0047475507 0)
(-50.001008 0.0046499615 0)
(-50.001065 0.0047544513 0)
(-50.001042 0.0046538587 0)
(-50.001062 0.0047552353 0)
(-50.001039 0.0046547264 0)
(-50.00106 0.0047558133 0)
(-50.001037 0.0046553555 0)
(-50.001057 0.0047562762 0)
(-50.001034 0.0046558653 0)
(-50.001051 0.0047568257 0)
(-50.001029 0.0046564787 0)
(-50.001039 0.0047575625 0)
(-50.001018 0.0046571901 0)
(-50.001075 0.0047663687 0)
(-50.00105 0.0046627981 0)
(-50.001072 0.0047671649 0)
(-50.001048 0.0046637171 0)
(-50.00107 0.004767744 0)
(-50.001045 0.0046643749 0)
(-50.001066 0.004768178 0)
(-50.001043 0.0046648749 0)
(-50.001061 0.0047686396 0)
(-50.001037 0.0046654178 0)
(-50.001049 0.004769078 0)
(-50.001026 0.0046657997 0)
(-50.001083 0.0047793031 0)
(-50.001058 0.0046727275 0)
(-50.001081 0.0047801043 0)
(-50.001055 0.0046736786 0)
(-50.001078 0.0047806882 0)
(-50.001053 0.0046743596 0)
(-50.001075 0.0047811184 0)
(-50.00105 0.0046748671 0)
(-50.001069 0.0047815559 0)
(-50.001045 0.004675394 0)
(-50.001057 0.0047818458 0)
(-50.001033 0.0046756187 0)
(-50.00109 0.0047917031 0)
(-50.001063 0.0046822562 0)
(-50.001087 0.0047925344 0)
(-50.00106 0.0046832525 0)
(-50.001084 0.0047931443 0)
(-50.001058 0.004683968 0)
(-50.001081 0.0047935989 0)
(-50.001055 0.0046845013 0)
(-50.001075 0.004794065 0)
(-50.00105 0.0046850503 0)
(-50.001063 0.0047943388 0)
(-50.001038 0.0046852329 0)
(-50.001095 0.0048033805 0)
(-50.001067 0.0046912119 0)
(-50.001092 0.0048042647 0)
(-50.001064 0.004692267 0)
(-50.001089 0.0048049203 0)
(-50.001062 0.0046930287 0)
(-50.001086 0.0048054243 0)
(-50.001059 0.0046936039 0)
(-50.00108 0.0048059636 0)
(-50.001054 0.0046942059 0)
(-50.001067 0.0048063233 0)
(-50.001042 0.0046944274 0)
(-50.001098 0.0048139919 0)
(-50.00107 0.0046993978 0)
(-50.001096 0.004814938 0)
(-50.001067 0.0047005162 0)
(-50.001093 0.0048156479 0)
(-50.001065 0.0047013286 0)
(-50.001089 0.0048162131 0)
(-50.001062 0.0047019533 0)
(-50.001083 0.0048168481 0)
(-50.001056 0.0047026247 0)
(-50.001071 0.0048173475 0)
(-50.001045 0.0047029329 0)
(-50.001101 0.0048234307 0)
(-50.001072 0.0047066752 0)
(-50.001099 0.0048244403 0)
(-50.00107 0.0047078556 0)
(-50.001096 0.0048252064 0)
(-50.001067 0.0047087182 0)
(-50.001092 0.0048258363 0)
(-50.001064 0.004709394 0)
(-50.001086 0.0048265743 0)
(-50.001059 0.0047101398 0)
(-50.001074 0.0048272327 0)
(-50.001047 0.0047105535 0)
(-50.001104 0.0048317186 0)
(-50.001074 0.0047130232 0)
(-50.001101 0.0048327948 0)
(-50.001072 0.0047142656 0)
(-50.001098 0.0048336209 0)
(-50.001069 0.0047151797 0)
(-50.001095 0.0048343213 0)
(-50.001066 0.0047159095 0)
(-50.001088 0.0048351739 0)
(-50.00106 0.0047167367 0)
(-50.001076 0.0048360168 0)
(-50.001049 0.0047172742 0)
(-50.001105 0.004838656 0)
(-50.001076 0.0047182733 0)
(-50.001103 0.0048397914 0)
(-50.001073 0.0047195689 0)
(-50.0011 0.0048406708 0)
(-50.001071 0.004720527 0)
(-50.001096 0.0048414343 0)
(-50.001067 0.0047213028 0)
(-50.00109 0.0048423896 0)
(-50.001062 0.0047221991 0)
(-50.001077 0.0048433981 0)
(-50.00105 0.0047228415 0)
(-50.001107 0.0048444799 0)
(-50.001077 0.0047226887 0)
(-50.001104 0.0048456673 0)
(-50.001074 0.0047240309 0)
(-50.001101 0.0048465938 0)
(-50.001072 0.0047250277 0)
(-50.001098 0.0048474132 0)
(-50.001068 0.0047258446 0)
(-50.001091 0.0048484601 0)
(-50.001063 0.0047268031 0)
(-50.001078 0.0048496178 0)
(-50.001051 0.0047275425 0)
(-50.001108 0.004849287 0)
(-50.001078 0.0047263998 0)
(-50.001105 0.0048505179 0)
(-50.001075 0.0047277812 0)
(-50.001102 0.0048514838 0)
(-50.001072 0.0047288109 0)
(-50.001099 0.0048523505 0)
(-50.001069 0.0047296634 0)
(-50.001092 0.0048534752 0)
(-50.001064 0.0047306768 0)
(-50.001079 0.0048547598 0)
(-50.001052 0.0047315042 0)
(-50.001109 0.0048531481 0)
(-50.001078 0.0047293549 0)
(-50.001106 0.0048544141 0)
(-50.001076 0.0047307679 0)
(-50.001103 0.0048554121 0)
(-50.001073 0.004731824 0)
(-50.001099 0.0048563171 0)
(-50.00107 0.004732705 0)
(-50.001093 0.0048575047 0)
(-50.001064 0.0047337619 0)
(-50.00108 0.0048588914 0)
(-50.001052 0.0047346585 0)
(-50.001109 0.0048562976 0)
(-50.001079 0.0047317303 0)
(-50.001107 0.0048575926 0)
(-50.001076 0.0047331692 0)
(-50.001104 0.0048586171 0)
(-50.001074 0.0047342469 0)
(-50.0011 0.0048595538 0)
(-50.00107 0.0047351509 0)
(-50.001093 0.0048607933 0)
(-50.001065 0.0047362431 0)
(-50.001081 0.004862264 0)
(-50.001053 0.0047371947 0)
(-50.00111 0.0048588521 0)
(-50.001079 0.0047336498 0)
(-50.001107 0.0048601712 0)