/*--------------------------------*- C++ -*----------------------------------*\
| =========                 |                                                 |
| \\      /  F ield         | OpenFOAM: The Open Source CFD Toolbox           |
|  \\    /   O peration     | Version:  2206                                  |
|   \\  /    A nd           | Website:  www.openfoam.com                      |
|    \\/     M anipulation  |                                                 |
\*---------------------------------------------------------------------------*/
FoamFile
{
    version     2.0;
    format      ascii;
    arch        "LSB;label=32;scalar=64";
    class       volScalarField;
    location    "100";
    object      alphat;
}
// * * * * * * * * * * * * * * * * * * * * * * * * * * * * * * * * * * * * * //

dimensions      [1 -1 -1 0 0 0 0];

internalField   nonuniform List<scalar> 
50904
(
1.1284708e-06
1.7406017e-06
1.469685e-06
2.2361085e-06
7.4725094e-06
9.4254156e-06
9.6449943e-06
1.0919509e-05
2.5297547e-05
2.6463333e-05
2.6226667e-05
2.6888359e-05
3.5276388e-05
3.825857e-05
3.5490548e-05
4.0578612e-05
6.7467459e-05
7.1240567e-05
7.0658949e-05
7.8347073e-05
0.00012982359
0.00013430664
0.00013014855
0.00014084043
0.00019249835
0.00019528413
0.00018075934
0.00019170467
0.00024706219
0.00024661575
0.00022098434
0.00023063703
0.00029917065
0.0002945075
0.00025741408
0.0002643879
0.00035036982
0.00034056583
0.00028656624
0.00028976532
0.00041006703
0.00039396239
0.00030181096
0.00030122896
0.00051019733
0.00048524084
0.00032563343
0.00031966778
0.00066604975
0.00064520658
0.00041253858
0.00039573853
0.00082594719
0.00080288723
0.00056976749
0.00053797234
0.0010121004
0.00097688025
0.00077226848
0.00072054654
0.0011731938
0.001135093
0.00097995736
0.00090717627
0.0013529241
0.0013173034
0.0011298818
0.0010411814
0.0016302902
0.0014326952
0.0011954337
0.0011026046
0.0016950078
0.0015187189
0.0011701041
0.0010842134
0.0014097517
0.001374428
0.0010635838
0.00099007542
0.001171352
0.001129943
0.0009155775
0.00085618434
0.0010141479
0.00096280711
0.00075860751
0.0007174944
0.00094397027
0.00089154375
0.00063827519
0.00062061495
0.00077452416
0.00079423093
0.00055946283
0.00055494229
0.00066630543
0.0006738285
0.00048492251
0.00048678983
0.00060664002
0.00060351181
0.00042296064
0.00042704827
0.00057555062
0.00056150123
0.00037651483
0.00037974418
0.00053659228
0.00051201928
0.00032783412
0.00032961245
0.00040796042
0.00039814549
0.00026973873
0.00027100732
0.00035218685
0.00033959109
0.00020358536
0.00020495021
0.00026244277
0.000237615
0.0001319116
0.00013198335
0.00015229794
0.00013425082
6.3145282e-05
6.2284574e-05
6.0189276e-05
5.3368562e-05
2.2055541e-05
2.5200364e-05
1.559664e-05
1.5686262e-05
7.1888986e-06
9.9804167e-06
1.1678983e-06
1.2876891e-06
9.1039842e-07
1.5406793e-06
1.1971332e-07
1.1914776e-07
2.1489544e-07
2.5161876e-07
1.493848e-06
2.3764699e-06
1.6962427e-06
2.6686176e-06
2.0169922e-06
2.7056039e-06
2.1101343e-06
2.4773162e-06
1.9558756e-06
2.1004001e-06
1.6581934e-06
1.7612944e-06
1.3723129e-06
1.5196368e-06
8.8751361e-06
9.7814154e-06
8.4550867e-06
9.1191241e-06
8.8896627e-06
9.1608976e-06
8.7161873e-06
8.6611307e-06
8.0456601e-06
7.8145772e-06
7.1749165e-06
6.9910493e-06
6.3720576e-06
6.3931412e-06
2.2456415e-05
2.3890108e-05
2.1401867e-05
2.29811e-05
2.3859718e-05
2.5466668e-05
2.4261516e-05
2.5489795e-05
2.3492544e-05
2.4742025e-05
2.2726338e-05
2.4129845e-05
2.2186755e-05
2.3668866e-05
4.2173902e-05
4.735864e-05
6.5099101e-05
7.4564658e-05
7.9507212e-05
8.7865274e-05
8.5303431e-05
9.2899667e-05
8.7990629e-05
9.5324826e-05
8.9808892e-05
9.6894555e-05
9.1248709e-05
9.7992955e-05
9.4220842e-05
0.00010473691
0.00014136967
0.00015535583
0.00016441203
0.00017512874
0.00017618032
0.00018441373
0.00018332486
0.00018975795
0.00018838501
0.00019325843
0.00019235478
0.0001957169
0.00015879891
0.00017127901
0.00020896947
0.00022228417
0.00023253429
0.00024154286
0.00024535836
0.00025101016
0.00025324352
0.00025656312
0.00025892295
0.00026048509
0.00026362703
0.00026367241
0.00020658965
0.00021940399
0.00025588736
0.00026828191
0.00027932151
0.00028730438
0.00029265454
0.00029744041
0.00030117395
0.00030395903
0.00030761982
0.0003090529
0.00031325368
0.00031361398
0.00024299561
0.00025532061
0.00029226051
0.00030465045
0.0003168906
0.00032554119
0.00033188061
0.00033779789
0.00034204975
0.00034627772
0.00035011948
0.00035326057
0.00035743593
0.00035977551
0.00027559094
0.00028645385
0.00032686945
0.00033958572
0.00035423651
0.00036441239
0.00037172742
0.00037953687
0.00038378711
0.00039002216
0.0003933225
0.00039859663
0.000401879
0.0004065848
0.00030000051
0.00030812949
0.00035650541
0.00036915521
0.00038930821
0.00040124891
0.00041085493
0.00042100036
0.00042544532
0.00043422296
0.00043636108
0.0004444258
0.00044537016
0.00045328912
0.00029942969
0.00030590463
0.00035585713
0.0003709811
0.00039409278
0.00041026442
0.00042057416
0.00043376654
0.00043889195
0.00044798009
0.00045265648
0.00045771145
0.00046405662
0.0004653262
0.00028337608
0.00028892343
0.00033268528
0.00034656752
0.00038161074
0.00039139666
0.00041947547
0.00041635398
0.00044867416
0.00042909771
0.00047331121
0.0004369331
0.00049629378
0.00044359157
0.00029846275
0.00029940819
0.00029706154
0.00030556685
0.0003314427
0.00033732204
0.00036275502
0.00035708325
0.00039033841
0.0003692817
0.00041556566
0.00037936132
0.00043886209
0.00038958937
0.0003790303
0.00037329293
0.00032977351
0.00032855878
0.0003516983
0.00034445717
0.0003741534
0.00035446524
0.00039574222
0.00036216532
0.00041685235
0.00037109756
0.00043581315
0.00038163054
0.00049466632
0.00047931339
0.00038982413
0.0003809336
0.00040294493
0.00038534896
0.00042069177
0.00038951812
0.00043967893
0.00039546206
0.0004601509
0.00040545336
0.00047943507
0.00041860744
0.0006217793
0.00059196136
0.00045198849
0.00043833318
0.00045729238
0.00043562917
0.00047547953
0.00044102566
0.0004981058
0.00045072731
0.0005235246
0.00046544993
0.00054808448
0.00048384809
0.00072228515
0.00067563782
0.00051333952
0.00049444181
0.00051517927
0.00048916728
0.00053590409
0.00049696616
0.00056325854
0.00051055108
0.00059412901
0.00052974695
0.0006242117
0.00055292476
0.00077308971
0.00071528675
0.00056387709
0.00054247666
0.000569025
0.00054103592
0.00059508882
0.00055344071
0.00062837609
0.00057143444
0.00066502619
0.00059473792
0.00070074913
0.00062194744
0.00077178011
0.00071543692
0.00059772183
0.0005807495
0.0006195874
0.00059487734
0.00065817806
0.00061589294
0.00070130553
0.00063891006
0.0007466044
0.00066572043
0.00079135452
0.00069638664
0.00072451493
0.00068261559
0.00061258956
0.00061023382
0.0006647162
0.00065236828
0.00072433179
0.00068771307
0.00078109894
0.00071830848
0.00083643966
0.00075016743
0.00089119331
0.00078557432
0.00066115828
0.00064107786
0.00062112081
0.00064117957
0.00070899426
0.0007157486
0.00079553003
0.00076754549
0.00087062123
0.00080477645
0.00093874607
0.00083927999
0.0010046374
0.0008766109
0.00059657409
0.00060261855
0.00063134356
0.00067396257
0.00075004365
0.00077798138
0.0008607989
0.00084583525
0.00095399972
0.00088902208
0.0010349008
0.00092490699
0.0011105651
0.0009627668
0.00056105547
0.00058577081
0.00064900484
0.00070106644
0.00077688651
0.00081786328
0.00088521861
0.00089513394
0.00097023715
0.00094570717
0.0010401529
0.00098642068
0.0011034452
0.0010269542
0.00052707148
0.00055301737
0.00061872239
0.00066310661
0.00072235197
0.00076159143
0.00080237985
0.00082639392
0.00086168182
0.00087063833
0.0009092347
0.00090707291
0.00095213915
0.00094268982
0.00046298417
0.00048874737
0.00054192896
0.00058459286
0.00062566259
0.00066748836
0.00068834502
0.00072101226
0.0007331202
0.00075653196
0.00076721064
0.00078423727
0.00079604466
0.00080980376
0.00039883984
0.00042452072
0.00046633247
0.00050937582
0.00053758681
0.00058233056
0.00059037105
0.00062897203
0.00062660132
0.00065835018
0.00065214002
0.00067964189
0.00067154536
0.00069775786
0.00035265889
0.00037474014
0.00041786643
0.00045464284
0.00048754435
0.00052229526
0.00053815621
0.00056262312
0.0005715159
0.00058594494
0.00059412371
0.00060201295
0.00061092016
0.00061566412
0.00030594174
0.0003228045
0.00036735698
0.00039687934
0.00043440662
0.00046147114
0.00048193082
0.00049854055
0.00051247458
0.00051894363
0.00053321334
0.00053278171
0.00054916634
0.00054489964
0.00025091272
0.00026322791
0.00030402049
0.00032857763
0.00036661498
0.00039241555
0.00041074094
0.00043057536
0.0004386632
0.00045187591
0.00045748414
0.0004660051
0.00047201526
0.00047768888
0.00018839441
0.00019652715
0.0002295533
0.00024907125
0.00028684017
0.00031159628
0.00032806292
0.00035097053
0.00035374739
0.00037324026
0.00037081773
0.00038749802
0.00038394801
0.00039867373
0.00012010552
0.00012395821
0.00014670819
0.00015973824
0.00019619228
0.00021771712
0.00023497737
0.00025783574
0.00025839001
0.00027989957
0.00027313835
0.00029310072
0.00028408937
0.00030279014
5.6146274e-05
5.7265015e-05
6.8391219e-05
7.4380289e-05
0.00010068446
0.00011524164
0.00013257677
0.00015101974
0.00015221772
0.0001706335
0.00016337338
0.00018121995
0.00017094326
0.00018818506
2.253337e-05
2.4830041e-05
2.4348202e-05
2.6149251e-05
3.3293874e-05
3.8411543e-05
4.7570712e-05
5.6045604e-05
5.8151783e-05
6.745322e-05
6.3821244e-05
7.3015506e-05
6.7137676e-05
7.624341e-05
1.0434166e-05
1.3757379e-05
1.397284e-05
1.4531393e-05
1.3222283e-05
1.3882894e-05
1.4363916e-05
1.5826935e-05
1.5935348e-05
1.7753837e-05
1.5916802e-05
1.8490787e-05
1.500818e-05
1.8129307e-05
2.4203016e-06
3.4114017e-06
4.3099619e-06
4.565855e-06
4.7948182e-06
5.2299511e-06
5.279114e-06
5.8959371e-06
5.191845e-06
5.8355451e-06
4.8382746e-06
5.4187949e-06
4.4996947e-06
5.0658975e-06
4.6051419e-07
5.6618084e-07
6.8373861e-07
7.5599137e-07
8.4839359e-07
9.7603964e-07
1.1269654e-06
1.3005513e-06
1.2633632e-06
1.4541815e-06
1.2291352e-06
1.4225245e-06
1.1250645e-06
1.3121317e-06
1.1587462e-06
1.35275e-06
1.0465543e-06
1.2449151e-06
9.7695679e-07
1.1614343e-06
9.4735167e-07
1.0996689e-06
9.9676848e-07
1.0681012e-06
1.1465097e-06
1.0706441e-06
5.8829751e-06
6.0936971e-06
5.670405e-06
5.9908453e-06
5.6940346e-06
6.0311353e-06
5.9194075e-06
6.1680306e-06
6.4283172e-06
6.4239533e-06
7.2124999e-06
6.7569824e-06
2.192808e-05
2.3542017e-05
2.2296486e-05
2.395416e-05
2.2873829e-05
2.4425934e-05
2.3726346e-05
2.4972925e-05
2.5491621e-05
2.5869142e-05
2.9695425e-05
2.7702478e-05
9.2555151e-05
9.8844598e-05
9.4644842e-05
9.9888368e-05
9.6590152e-05
0.00010062161
9.8506078e-05
0.00010113308
0.00010120357
0.00010141972
0.00010501137
0.00010096854
0.00019578357
0.00019758597
0.00019875221
0.00019892575
0.00017442365
0.00019967639
0.00015056339
0.00015162558
0.0001825809
0.00018177976
0.00020108145
0.0001921627
0.00026799317
0.00026653341
0.00027175064
0.00026880269
0.00021062268
0.00026504542
0.00017427316
0.00017706129
0.00020545503
0.0002082573
0.00026040693
0.00026549082
0.0003187633
0.00031809471
0.00032364048
0.00032207646
0.00022744337
0.0002396649
0.0001842244
0.00018806663
0.00021856283
0.00022323754
0.000290178
0.0003156844
0.0003647783
0.00036638182
0.00037153338
0.00037254741
0.0002248655
0.00023584643
0.00018158981
0.00018595745
0.00022119629
0.00022655473
0.00031281265
0.00034147666
0.00041034399
0.00041470629
0.00039662954
0.00042225037
0.00020729864
0.00022054974
0.00017042212
0.00017647388
0.00021596259
0.00022189577
0.00032717868
0.00035868855
0.00045333697
0.00046165961
0.00035802219
0.00040027072
0.00019568532
0.00020555815
0.00016704544
0.0001688915
0.00020931144
0.00021275138
0.000324298
0.00036075331
0.00047415494
0.00047168654
0.00040428828
0.00037380055
0.00024398224
0.00020927345
0.00020996733
0.00017428481
0.00021886218
0.0001934077
0.00030017772
0.00032745506
0.00051916814
0.00044972122
0.0005374794
0.00034792996
0.00035358219
0.00022412909
0.00029621316
0.00018819036
0.00028967818
0.00018300488
0.00041429588
0.00038432815
0.00045813111
0.0003986312
0.00033807202
0.00028028077
0.0002269254
0.00019194892
0.00020463155
0.00016521525
0.0002338958
0.00016259219
0.00061279448
0.0005401758
0.00042686611
0.00039079501
0.0002593553
0.00026665098
0.00019153185
0.00018710658
0.000186661
0.00016662746
0.00023173726
0.000176359
0.00070270723
0.00061886875
0.00044822601
0.00043160485
0.00028574993
0.00032393016
0.0002232617
0.00023464259
0.00023110097
0.00022109942
0.00030415197
0.00024599607
0.00067593799
0.00056874612
0.00054116648
0.00050330311
0.00034854106
0.00041833254
0.00027968097
0.00031332364
0.00030177168
0.00030989583
0.00041167198
0.00036191023
0.00070226559
0.00056847922
0.00064220123
0.00057823473
0.0004145314
0.00050506608
0.0003373126
0.00038413424
0.00037408464
0.00038872413
0.00052671966
0.00047588638
0.00077901403
0.00062981716
0.0007313102
0.0006522377
0.00048322056
0.00058904135
0.00039423035
0.00044532302
0.00044225277
0.0004519464
0.00063769883
0.00056659734
0.00087084342
0.00071562493
0.00083403443
0.00073143594
0.00060224688
0.0006998933
0.00048078979
0.00051358268
0.00053270505
0.00051254939
0.00076957378
0.00064444377
0.00096032965
0.00079795623
0.00094800975
0.00082697772
0.00080551297
0.00086837955
0.00061504509
0.00061196023
0.00066021843
0.00058765046
0.00094299561
0.00073873184
0.0010956271
0.00088948072
0.0010755688
0.00092115395
0.0011309394
0.00096888033
0.00080550113
0.00069882498
0.00081643273
0.00064550132
0.0011313285
0.00080091884
0.0012427121
0.0010077764
0.0011918783
0.0010093207
0.001279083
0.0010613907
0.0011137967
0.00079102121
0.0010580193
0.00070630118
0.0013487351
0.00086588297
0.001365342
0.0011176225
0.0011717648
0.0010753329
0.0012464114
0.0011305723
0.0010888924
0.00095886231
0.00097459471
0.00082093262
0.0011102163
0.00096838985
0.0012542526
0.001165041
0.00099853012
0.00098396319
0.001048106
0.0010304756
0.00074179659
0.00077298351
0.00066832632
0.00067464031
0.00075438158
0.00081041597
0.0010417912
0.0010864319
0.00082517449
0.00083786256
0.00069585436
0.00080149587
0.00047240053
0.00048842869
0.00043617996
0.0004425341
0.0005100682
0.00056888551
0.00086223543
0.0009731913
0.00068875559
0.00071624438
0.00039079997
0.00050725528
0.00027907333
0.00032067366
0.00027557445
0.00030902452
0.00039942455
0.00045949837
0.00075631824
0.0008642934
0.0005995072
0.00063007268
0.00029078753
0.00040903836
0.0002090447
0.00025496501
0.00023289976
0.00025705186
0.00038547517
0.00041691152
0.0006547917
0.00075741193
0.00056438755
0.00055835788
0.00028503272
0.0003907769
0.00020578071
0.0002446034
0.00023614714
0.00025016801
0.00038174188
0.00039951548
0.00058121093
0.00067748251
0.00048604745
0.00049011539
0.00027261987
0.00036433758
0.00020730774
0.00024053674
0.00024342214
0.00025310125
0.00037656565
0.00039337582
0.00050727856
0.00059259427
0.00039650049
0.00040987537
0.00025123594
0.00032398765
0.0002037396
0.00023079025
0.00024496546
0.00025295851
0.00036145462
0.00038330626
0.00043154175
0.00049547133
0.0002941259
0.0003117954
0.00021750242
0.00026851305
0.00018852008
0.0002078282
0.00023222886
0.00023878215
0.00033409519
0.00035996972
0.00036661327
0.00037446984
0.00017740458
0.0001940975
0.00016841051
0.0001986883
0.00015827647
0.00017094725
0.00019988217
0.00021179125
0.00021050883
0.00022294685
0.00022559869
0.00023590958
6.9783761e-05
7.8802899e-05
7.2520481e-05
8.1295225e-05
7.5312954e-05
8.3598347e-05
7.8641347e-05
8.641108e-05
8.3203696e-05
9.0309091e-05
9.1979257e-05
9.7900034e-05
1.4203036e-05
1.6807684e-05
1.4388857e-05
1.6826116e-05
1.5744303e-05
1.8146955e-05
1.7799457e-05
1.933574e-05
1.8315604e-05
1.971165e-05
1.9880006e-05
2.0963307e-05
4.2934834e-06
4.8559848e-06
4.1059823e-06
4.6562538e-06
3.9894322e-06
4.5119486e-06
3.9102572e-06
4.4107934e-06
3.8408324e-06
4.326264e-06
3.8517109e-06
4.2632736e-06
1.0235325e-06
1.2025397e-06
9.3472532e-07
1.1056982e-06
8.6324305e-07
1.0291253e-06
8.0380174e-07
9.6750463e-07
7.6000368e-07
9.2154852e-07
7.8549879e-07
9.3172062e-07
1.3109523e-06
1.0909895e-06
1.2987673e-06
1.0556208e-06
1.0543723e-06
8.7763096e-07
8.6498477e-07
7.2223322e-07
6.9317814e-07
5.6092116e-07
5.1368935e-07
4.0123501e-07
6.7734882e-06
6.1873143e-06
5.2926232e-06
4.6000354e-06
4.2721635e-06
3.6487837e-06
3.5538554e-06
3.0910562e-06
3.0579157e-06
2.7726537e-06
2.7218129e-06
2.5498126e-06
3.1362555e-05
2.7911838e-05
2.3858526e-05
2.1681335e-05
1.9617384e-05
1.8961068e-05
1.755571e-05
1.7530052e-05
1.6319601e-05
1.6414737e-05
1.5381087e-05
1.5482826e-05
0.00010000204
9.2841428e-05
8.0180036e-05
7.6012577e-05
6.7981104e-05
6.1416531e-05
5.4747566e-05
3.9518324e-05
5.4373399e-05
4.0278819e-05
4.9221112e-05
5.0040319e-05
0.000187364
0.00017454099
0.00013380543
0.0001447213
8.4269594e-05
7.7053162e-05
6.9713302e-05
5.3047074e-05
8.5178945e-05
5.6211149e-05
0.00010507256
8.2137065e-05
0.0002447348
0.00024310324
0.00016454391
0.00017977391
0.00010676467
9.7876268e-05
9.2336696e-05
7.0189246e-05
0.00012254855
8.0065056e-05
0.00014346454
0.00013327571
0.00028955525
0.00030408532
0.00019917261
0.00021554083
0.00013115115
0.00012051691
0.00011897667
9.1946454e-05
0.00017555715
0.00011463637
0.0002134819
0.00022101747
0.00033452278
0.00036450685
0.00023159197
0.00025152936
0.00015385498
0.00014535865
0.00014797356
0.00012035929
0.00024323112
0.00016594043
0.00031095524
0.00033588382
0.00037796234
0.00042360065
0.00026129839
0.00028677482
0.00016934988
0.0001656025
0.00016570142
0.00014502339
0.00029284887
0.00021745165
0.00039427532
0.00041790289
0.00040569965
0.00049704284
0.00029497043
0.00033580791
0.00019428387
0.0001946371
0.00019393732
0.00017432514
0.00033872728
0.00025852843
0.00042273424
0.0004176415
0.00043459047
0.00057093143
0.00037533212
0.00044773329
0.00029278683
0.00030694403
0.00031416305
0.00029356339
0.00042497742
0.00033845406
0.00040491917
0.00039050708
0.00070748402
0.0007317288
0.00066885885
0.00076049947
0.00048813324
0.00047495576
0.0004181002
0.00038920625
0.00043729513
0.00041705525
0.00052068351
0.00041070416
0.00085177554
0.00075761633
0.00091070562
0.00077823387
0.000692467
0.00079110842
0.00049410585
0.00071495216
0.00049645266
0.00063777994
0.00066415092
0.00060381205
0.00080659445
0.00066167597
0.00084745844
0.00066700469
0.00087656119
0.00067641887
0.00059796202
0.00069160865
0.00050359479
0.00071419156
0.00051911504
0.00074861944
0.00075128613
0.00059927791
0.00078226773
0.00060385575
0.00080751876
0.00061509352
0.00052607052
0.00063317341
0.00036863271
0.00065985471
0.00037993921
0.00066493773
0.00076329969
0.00059971756
0.00078852411
0.00060428113
0.00081045685
0.0006149264
0.00044835145
0.00063200047
0.00030759287
0.00037347136
0.00032753355
0.00025181547
0.00084106557
0.00065173697
0.00086928173
0.00065435938
0.00089284704
0.0006637733
0.0004259996
0.000650307
0.00030818287
0.00030984314
0.00033048782
0.00022380726
0.00094560677
0.00073277104
0.00098488872
0.00073629632
0.0010154621
0.00074709486
0.00044702402
0.00068824341
0.00032824758
0.00029957102
0.00035430691
0.00023516434
0.0010294638
0.00080846503
0.0010763208
0.00081159284
0.0010959464
0.00082401609
0.00043584468
0.00058004913
0.00033035611
0.00025567492
0.00037087583
0.00024736077
0.0011055044
0.00088956497
0.0011442892
0.00089242879
0.00080173223
0.00065299833
0.00043433795
0.00033481202
0.00033461965
0.00025241877
0.0003718655
0.00028376455
0.0011590347
0.0009341777
0.0011615591
0.00090405202
0.00082532899
0.00064527634
0.00045443181
0.00034932555
0.0003464425
0.00027060786
0.00036904868
0.00029728865
0.0012009842
0.00099175216
0.0011809118
0.00094171099
0.00093653707
0.00073266428
0.00051071568
0.00040417502
0.00038248724
0.00031175774
0.0003865786
0.00032464851
0.0011468097
0.0010266858
0.0011402096
0.00098146526
0.00068945398
0.00084684974
0.00037830625
0.00045512339
0.00029643349
0.00034691695
0.00034249797
0.00036017051
0.0011550744
0.0010024651
0.0010455713
0.00097797582
0.00048013887
0.00072312303
0.00031853069
0.00039569282
0.00032835466
0.00031815441
0.00065879625
0.00039103168
0.0011506828
0.00093906076
0.00090374482
0.00093050755
0.00051742103
0.00050174579
0.00043844184
0.00030564073
0.00059101186
0.00030852477
0.0012434447
0.0006315053
0.00099513628
0.00083562625
0.00077722175
0.00082314765
0.00052590912
0.00043861256
0.00053950599
0.00027958408
0.00095882007
0.00031717126
0.0012228689
0.00084316349
0.00082155082
0.00072747693
0.00065367241
0.00070768986
0.00043404672
0.00035507496
0.00044961543
0.00023707029
0.00085703318
0.00029715706
0.00098336489
0.00088406999
0.00068846748
0.00066140109
0.00057683718
0.00057700836
0.00043117495
0.00029616782
0.00048224354
0.00024346042
0.00077226975
0.0003789438
0.0005490641
0.00079407576
0.00053458489
0.00060146898
0.00047676275
0.00048611801
0.00040947619
0.00030984198
0.00043729051
0.00027590765
0.00051383025
0.00038813326
0.00040524156
0.00055856754
0.00040454314
0.00048169464
0.00035983213
0.00038433157
0.00032486079
0.00027544269
0.00033220296
0.00023797445
0.0003738026
0.00029059016
0.00036890895
0.00038079926
0.00033090944
0.00038484071
0.00029284677
0.00031491567
0.0002663221
0.00023688083
0.00026557122
0.00019832521
0.00029875356
0.00022171984
0.00034490854
0.00028713142
0.00024599548
0.00025430569
0.00026069822
0.00026041199
0.00024703615
0.00021855931
0.00023433548
0.00017022741
0.00026132822
0.00017724956
0.0002930532
0.00023934912
0.00010905851
0.00011330821
0.00012703143
0.00012700899
0.00013088666
0.00012793439
0.0001341825
0.00012932603
0.0001382737
0.00013179182
0.00014304355
0.00013492616
2.5254675e-05
2.5635809e-05
3.6152631e-05
3.4864178e-05
3.9422216e-05
3.6617562e-05
4.1044888e-05
3.7419002e-05
4.2471289e-05
3.8197802e-05
4.3917145e-05
3.9028741e-05
4.4185754e-06
4.6489543e-06
5.8218372e-06
5.6846467e-06
6.5003747e-06
5.9804778e-06
6.6720227e-06
6.0039172e-06
6.7857908e-06
6.0322982e-06
6.8748694e-06
6.0610736e-06
9.720303e-07
1.0914296e-06
1.1704952e-06
1.2643869e-06
1.1581716e-06
1.2293752e-06
1.1022743e-06
1.1665932e-06
1.0505607e-06
1.1127693e-06
1.0012082e-06
1.0648641e-06
3.9621698e-07
2.9848191e-07
3.1782805e-07
2.2132243e-07
2.6839486e-07
1.6677026e-07
2.3391472e-07
1.3085809e-07
2.0418508e-07
1.0629214e-07
1.7625864e-07
8.5979262e-08
1.7257566e-07
8.7235987e-08
2.5499172e-06
2.4223135e-06
2.5227909e-06
2.4133211e-06
2.6170317e-06
2.5287411e-06
2.7563846e-06
2.7270005e-06
2.8747735e-06
2.9213189e-06
2.948697e-06
3.0032443e-06
3.0813007e-06
2.9878042e-06
1.4694036e-05
1.4987255e-05
1.4689444e-05
1.5022405e-05
1.5212657e-05
1.5615266e-05
1.5954036e-05
1.6730561e-05
1.6620377e-05
1.7665948e-05
1.7386065e-05
1.8444255e-05
1.8008616e-05
1.8800547e-05
4.5234175e-05
4.544896e-05
4.3119356e-05
4.2664915e-05
4.2111023e-05
4.1390117e-05
4.1824488e-05
4.0979566e-05
4.2435946e-05
4.1225354e-05
4.4318199e-05
4.2233796e-05
4.8898487e-05
4.4862809e-05
8.9877211e-05
9.3219097e-05
8.7838791e-05
8.5305706e-05
0.00011016838
9.3454492e-05
0.00010909064
0.00010253301
0.0001107832
0.00010206041
0.00011637308
0.00010417246
0.0001304319
0.00011236167
9.7739554e-05
0.00013173079
8.519526e-05
9.5121619e-05
0.00011454192
9.3725873e-05
0.00022271077
0.00014067659
0.00023335276
0.00021279261
0.00024899759
0.00022209131
0.00027931679
0.00024318629
0.00011635198
0.00020233874
8.9412475e-05
0.00011949654
0.00011432866
0.00010425137
0.00023551131
0.00014885641
0.00038782009
0.00027274347
0.00041791309
0.00037466329
0.00046630029
0.00041247393
0.00014135441
0.00029110449
9.9111835e-05
0.00015573567
0.00011995138
0.00012589758
0.00024677034
0.00016713988
0.00050753242
0.00030640952
0.00057758406
0.00044766164
0.00057854718
0.00052716172
0.00016880071
0.00033957962
0.00011636009
0.0001956069
0.00013859726
0.00016183926
0.00027455107
0.00020600344
0.00057130586
0.00035435611
0.00064283062
0.00052030815
0.00065478759
0.00061499058
0.00019993788
0.00035150002
0.00014548384
0.00025800901
0.0001779387
0.00022050639
0.0003357587
0.0002768848
0.00063855622
0.00043187844
0.00073956959
0.00060279108
0.0008355717
0.00074627032
0.00026772113
0.00032443508
0.00022099206
0.00030155973
0.00026826215
0.00034930273
0.00044354276
0.00041892252
0.00074258064
0.00056554574
0.0009358667
0.00070579121
0.0011817025
0.00091288217
0.00054444417
0.00036817414
0.0004912873
0.00036170884
0.00052806265
0.00044794308
0.00065381671
0.00063063444
0.00091782625
0.0007600097
0.0011819811
0.00080496732
0.0014437948
0.00094903181
0.00088208051
0.00051695987
0.0010037545
0.00042164144
0.0011134137
0.00038977882
0.0012065962
0.00054171828
0.0011682185
0.00088090101
0.0012579647
0.00098909786
0.0013286878
0.0010497163
0.00054299429
0.00079032704
0.00057568144
0.00034658825
0.00067178364
0.00029633875
0.00083072732
0.00045255068
0.0012114046
0.00086858998
0.0013985288
0.0013603701
0.0013387917
0.0014685599
0.00047005304
0.0003433648
0.00060741669
0.00031045457
0.00072261685
0.00037651023
0.00075348339
0.00049396451
0.00092655267
0.00076349339
0.00143266
0.0013366311
0.0017852727
0.0017211986
0.00043584583
0.00027442111
0.00064141396
0.00039353535
0.0009547817
0.00053663432
0.0010453055
0.00061164161
0.0010732261
0.00077108754
0.0013110898
0.0011840552
0.001807217
0.0017129213
0.00043696841
0.00028833102
0.00066655633
0.00050394482
0.0011697376
0.0007606971
0.0013218718
0.0008346949
0.0013572868
0.00093455375
0.0014076859
0.0011172279
0.0017377449
0.0016512983
0.00045396459
0.00031147749
0.00067514457
0.00055408012
0.0012994533
0.001027271
0.0015456697
0.0011667257
0.0015813371
0.0012235445
0.0016268291
0.0013201239
0.001825118
0.001722002
0.00048794568
0.00035582276
0.00073440709
0.00064467042
0.0014272683
0.0013039316
0.0018251388
0.001501803
0.0018901224
0.0015628743
0.0019697589
0.0016604561
0.0021284339
0.0019888326
0.00051495262
0.00042819284
0.00082737361
0.00076442068
0.0016109358
0.0015912496
0.0020818952
0.0017622284
0.0021857812
0.0018646265
0.0022914545
0.0019811472
0.0024163245
0.0021943131
0.00050794867
0.00043790239
0.00088534876
0.0007886751
0.0017955711
0.0016424434
0.0023324385
0.0020455189
0.0024970667
0.0022125345
0.0026440887
0.0023607085
0.0027700513
0.0025136967
0.00049917692
0.00042784742
0.00096173133
0.00078460784
0.0022380302
0.001912533
0.0024914613
0.0022407962
0.002733584
0.0024960214
0.0029459797
0.0027245833
0.0031184581
0.0029284149
0.00065254241
0.00048767304
0.0015229791
0.00099099821
0.0022842167
0.0020333422
0.0025357091
0.0023116438
0.002742083
0.0026217842
0.0030838742
0.0029116882
0.0033130412
0.0031857589
0.0011734576
0.00075665721
0.0017790359
0.0016010143
0.0013360095
0.0017222619
0.0013936704
0.0016072271
0.0022204599
0.0021262157
0.0030470765
0.002882848
0.0033125741
0.0032075486
0.0014706357
0.0013765286
0.000750514
0.00084645186
0.00069889741
0.00066704044
0.0011686411
0.00099343749
0.0020538301
0.0020703377
0.0024078391
0.0024535412
0.0031314058
0.0030199138
0.00064078591
0.001145794
0.00043612233
0.0005081523
0.00060357561
0.00052216034
0.0013724719
0.0010694049
0.0019487591
0.002004723
0.0020011588
0.0020460928
0.0023912053
0.0022123604
0.00041991273
0.00077579171
0.0003692776
0.00041290513
0.00064919527
0.00050306336
0.0014666455
0.0011226234
0.0017450631
0.0016280685
0.0017281269
0.0017987375
0.0018137483
0.0017348494
0.00033097569
0.00049639306
0.0003696574
0.00035933117
0.00075087048
0.00050641222
0.0013138456
0.0010797875
0.001406328
0.0012991657
0.0014554255
0.0014198441
0.0013672109
0.0013708999
0.00033115669
0.00038582128
0.00042798941
0.00034752378
0.00080090499
0.00053414137
0.0010309727
0.00095609804
0.0010889852
0.0010071632
0.0011594167
0.001082921
0.001023764
0.0011014015
0.00037002157
0.00034353184
0.00049163969
0.00036229542
0.00074461954
0.0005517027
0.00078316189
0.00072765627
0.00082023505
0.00075642132
0.00086452664
0.00080386552
0.00081748495
0.00089003547
0.00039628195
0.00031799411
0.00050630908
0.00037459262
0.00053344312
0.00049758058
0.00055811874
0.00051548508
0.00058205309
0.00053064131
0.00061282998
0.0005592233
0.00066599907
0.00062584276
0.00030469098
0.00028979293
0.00031842279
0.00029820535
0.00033178427
0.00030673235
0.00034328594
0.00031196016
0.00035555257
0.00031733316
0.00037299431
0.00032928604
0.00042100124
0.00037697418
0.00014760108
0.00013759582
0.00015257507
0.00014003388
0.00015671286
0.00014114197
0.00015962945
0.00014079111
0.00016264739
0.00014075245
0.00016871553
0.00014282246
0.00019872644
0.00016914318
4.5222729e-05
3.9680462e-05
4.6495885e-05
4.0358542e-05
4.7305493e-05
4.0618522e-05
4.7559588e-05
4.0680635e-05
4.7589817e-05
4.1234294e-05
4.8549639e-05
4.2419339e-05
5.8290284e-05
5.2278677e-05
6.8870068e-06
6.0316213e-06
6.8650696e-06
5.992069e-06
6.6480168e-06
5.7943412e-06
6.2432967e-06
5.4807099e-06
5.7671733e-06
5.2186132e-06
5.7269622e-06
5.389305e-06
6.8270872e-06
6.6221827e-06
9.4158492e-07
1.0109146e-06
8.7687592e-07
9.5125833e-07
7.8627735e-07
8.6144602e-07
6.8376302e-07
7.5157874e-07
5.9022933e-07
6.5348437e-07
5.5690737e-07
5.8044205e-07
6.3438065e-07
5.9756595e-07
2.28908e-07
1.3711191e-07
3.2968314e-07
2.0014088e-07
5.4361686e-07
3.3810699e-07
8.4037853e-07
4.9546929e-07
3.5441574e-06
3.2796683e-06
4.0168314e-06
3.5751992e-06
4.6551542e-06
4.1743932e-06
5.2440399e-06
4.3572938e-06
1.9571087e-05
2.0001403e-05
2.0723345e-05
2.0551378e-05
2.6021458e-05
2.292098e-05
3.1788522e-05
2.5109402e-05
6.2046607e-05
5.4014771e-05
7.7513319e-05
6.3389929e-05
0.00010570596
8.281281e-05
0.00013775672
0.00010377894
0.0001691849
0.00014144322
0.00021083313
0.00017102835
0.00026945832
0.00022178861
0.00031813282
0.00026476173
0.00034429007
0.00029711083
0.00040297987
0.00034621182
0.00045073958
0.00041344292
0.00038391896
0.00044273276
0.00055159399
0.00048688255
0.00051702293
0.00055004064
0.00046454554
0.00052129493
0.00045992039
0.00046981671
0.00058838315
0.00059237018
0.00056890255
0.00060819664
0.00058064952
0.00058328041
0.00071032196
0.00059627668
0.00069494582
0.00068835288
0.00074537346
0.000721659
0.00090599987
0.00076463984
0.00144978
0.00094567152
0.00096723175
0.00087243496
0.0011562173
0.00098251574
0.0015394163
0.001161803
0.0022071799
0.001612721
0.0014145247
0.0011466507
0.0016725206
0.0013799776
0.0020330656
0.0016428528
0.0025679438
0.0021000133
0.0016513783
0.0012615198
0.0018611889
0.0015801772
0.0021144933
0.0018485686