/*--------------------------------*- C++ -*----------------------------------*\
| =========                 |                                                 |
| \\      /  F ield         | OpenFOAM: The Open Source CFD Toolbox           |
|  \\    /   O peration     | Version:  2206                                  |
|   \\  /    A nd           | Website:  www.openfoam.com                      |
|    \\/     M anipulation  |                                                 |
\*---------------------------------------------------------------------------*/
FoamFile
{
    version     2.0;
    format      ascii;
    arch        "LSB;label=32;scalar=64";
    class       volScalarField;
    location    "100";
    object      k;
}
// * * * * * * * * * * * * * * * * * * * * * * * * * * * * * * * * * * * * * //

dimensions      [0 2 -2 0 0 0 0];

internalField   nonuniform List<scalar> 
50904
(
5.0523544
7.6770247
6.5460078
9.7655392
7.9845702
10.07187
11.039709
12.116617
12.030342
12.530373
13.909144
13.230588
7.2714108
7.6110983
7.4261305
7.6788055
5.275366
5.470498
5.6183499
6.0417242
5.8283556
5.9818237
6.386708
6.9054281
7.0766779
7.1912061
7.6527311
8.223821
8.4569674
8.4909732
9.0105843
9.557185
9.8580322
9.7489266
10.415419
10.808657
11.155561
10.822177
11.549338
11.635009
12.312329
11.708114
11.774383
11.510244
13.806561
12.934707
11.284809
10.787567
16.493199
15.343239
12.310885
11.371484
20.206186
18.86182
15.271684
13.87161
24.450952
23.152466
19.110793
17.259816
28.632969
27.911193
23.012562
20.834619
32.172487
32.508722
25.926845
23.554932
34.756185
36.167739
27.346767
25.04449
35.508628
38.250847
27.225615
25.15746
33.980383
37.564774
25.664241
23.832634
30.439812
33.565236
23.394286
21.809585
25.40685
27.136363
21.208622
20.060476
20.548036
21.523024
19.867703
19.388567
17.193014
17.737676
18.855973
18.69705
14.916842
15.108248
16.838669
16.825456
13.852125
13.862447
14.573629
14.650514
13.988876
13.757547
12.719582
12.838763
15.073688
14.267752
11.056654
11.170092
16.527391
14.896195
9.1907902
9.3140187
16.716165
14.208081
7.2898251
7.461686
14.905151
12.044448
5.5369613
5.6807632
11.126745
9.0771157
3.8286775
4.0397941
7.2360106
6.4100392
2.8380049
3.7947874
4.4980577
4.6690286
2.5318915
4.1277327
0.94069207
1.040344
0.79731772
1.4007698
0.54955114
0.54625076
0.99448832
1.1598398
6.5872719
10.216102
7.4211957
11.358073
8.8142881
11.471849
9.2118294
10.467521
8.5225343
8.8441195
7.2088328
7.3965781
5.9542431
6.3712309
10.246747
10.728973
9.6538272
9.7439768
9.9464289
9.592919
9.6415483
9.2441659
9.035065
8.7037074
8.4031291
8.1622423
7.8639518
7.7535773
10.768842
10.112204
7.3146094
6.8873135
7.5704647
7.4949037
7.9386756
7.8779447
8.0810641
8.0641728
8.1892284
8.2156379
8.2958322
8.3369843
6.9437683
7.2048222
8.7532001
9.3980729
10.653719
11.414247
11.821931
12.589158
12.537992
13.299025
13.061037
13.777162
13.466534
14.118404
7.1544929
7.7613119
11.765743
12.994082
14.981074
16.27339
17.156316
18.395396
18.660049
19.81789
19.786063
20.837639
20.713772
21.628774
8.8202647
9.5887955
15.028971
16.566731
19.382864
21.041263
22.518658
24.137733
24.776351
26.299433
26.512324
27.910548
27.983371
29.224549
10.569635
11.441257
18.1712
19.930805
23.694915
25.635149
27.813797
29.720769
30.836331
32.633744
33.189456
34.849184
35.20716
36.697886
12.339116
13.210686
21.314632
23.162859
28.017471
30.074681
33.088298
35.081248
36.824375
38.659548
39.731481
41.386452
42.224267
43.67846
14.18395
14.860683
24.691115
26.327071
32.632057
34.466643
38.672789
40.377205
43.128914
44.594301
46.594925
47.804862
49.562151
50.509689
15.697749
15.910243
27.85223
28.83236
37.196427
38.293374
44.374103
45.214444
49.747808
50.190147
54.020988
54.03301
57.768105
57.331401
15.594071
15.299953
28.6467
28.892748
39.439482
39.627049
48.136026
47.703707
55.021246
53.656504
60.908837
58.460427
66.499467
62.849061
13.131136
12.792658
25.097122
25.372088
37.653567
37.641455
49.213141
47.837847
59.201947
55.840583
68.249084
62.674752
77.103606
69.262305
11.285206
10.742876
17.385515
17.6709
25.299992
26.708751
33.272594
35.774474
40.801246
44.150472
47.932901
52.037277
54.698362
59.752836
12.310325
11.526886
15.72722
15.650163
21.906767
23.107387
28.576043
31.466333
35.347372
39.864024
41.968884
48.058308
47.983327
55.995311
14.317526
13.311329
15.809264
15.659114
21.631981
22.915733
28.502532
31.823939
35.884416
41.268025
43.260878
50.64907
49.945748
59.712138
16.710056
15.454027
16.590273
16.565647
22.859416
24.512798
30.992959
34.963615
39.911694
46.243792
48.713989
57.379974
56.583122
67.984734
18.686476
17.16341
17.827347
18.00126
24.91416
27.030063
34.53257
39.161581
45.084492
52.195767
55.322152
64.860966
64.337354
76.684376
19.834819
18.189762
19.328368
19.827038
27.628036
30.399591
38.842695
44.348269
50.953247
59.006028
62.491202
72.914754
72.544978
85.638362
20.35197
18.79102
21.189214
22.181263
31.118166
34.727593
44.202361
50.463975
58.106994
66.311202
71.281069
80.931178
82.988228
94.214082
20.438843
19.217365
23.692871
25.433973
35.766778
40.46975
50.796792
58.076069
66.227721
75.013957
80.719008
90.316671
93.938949
104.26118
20.698672
20.061339
27.377501
30.018708
42.3265
47.720679
59.643831
66.559033
76.587235
83.521059
92.207096
98.35575
106.66961
111.83314
21.68891
21.962784
33.813107
37.249508
53.731504
58.365582
74.716655
78.132072
93.522057
94.41214
109.98149
108.14809
125.0887
120.71194
24.170725
25.297347
42.695948
46.255629
68.708758
71.351899
94.76052
92.896471
116.97851
109.24
135.531
122.25776
151.9067
133.90766
25.481359
26.421342
45.612629
47.732575
70.7863
71.558704
94.434496
91.788002
113.83269
107.34404
129.72926
119.80576
143.68051
130.85565
23.305415
24.019348
41.135371
42.840337
62.674923
63.955301
82.673461
82.393433
98.986295
96.955735
112.21371
108.54578
123.61633
118.46258
19.698863
20.381802
34.146181
36.000674
51.533753
53.763975
67.578396
69.500405
80.47108
81.908063
90.600943
91.534083
98.950381
99.35458
16.421521
17.06902
27.85909
29.763341
41.663053
44.19583
54.148293
56.753095
63.837551
66.352999
71.13689
73.547223
76.883081
79.164358
13.791452
14.284523
22.866475
24.489153
33.945112
36.147479
43.825109
46.121549
51.325984
53.558746
56.869699
59.022072
61.192953
63.239686
11.406339
11.742032
18.461106
19.794111
27.318803
29.252527
35.220227
37.383023
41.180226
43.410833
45.555222
47.819239
48.938836
51.200111
8.991905
9.2154964
14.269709
15.323398
21.148542
22.807208
27.261251
29.207054
31.805124
33.897924
35.081189
37.259196
37.570201
39.792124
6.6032535
6.7698755
10.313022
11.082788
15.420995
16.783943
19.969191
21.617792
23.264086
25.045726
25.563975
27.414416
27.264001
29.147535
4.5477661
4.7995374
6.8242969
7.3035545
10.210875
11.206654
13.399392
14.686164
15.656095
17.056005
17.159799
18.612498
18.226481
19.697251
4.1486466
5.1498702
4.9664718
5.2267647
6.2774286
6.7485911
8.0393589
8.7434774
9.3308052
10.163181
10.124881
11.037815
10.678648
11.62071
5.1705588
7.1485227
7.6683821
7.9180787
6.8529493
6.8987894
6.4630873
6.4559025
6.6662406
6.7998409
6.7384241
7.0034023
6.7018742
7.0498788
2.4825961
3.5946198
4.992512
5.2098121
5.8190167
6.2065991
6.3919995
6.9593071
6.1135715
6.7087454
5.5486631
6.1466698
5.0970591
5.6999704
2.1295228
2.5995206
3.1406358
3.4311779
3.8870472
4.4094379
5.1624537
5.8689338
5.7854843
6.5566521
5.622161
6.4042614
5.1383355
5.8969497
5.0199295
5.664693
4.5293833
5.2080734
4.2252494
4.8551479
4.0951873
4.5938826
4.3082273
4.4591502
4.9563583
4.4659458
7.5213482
7.5262121
7.353336
7.4081244
7.3219759
7.3583175
7.392192
7.3367362
7.5559214
7.3250286
7.6123227
7.18588
8.3966931
8.4307386
8.4584072
8.4917099
8.4184529
8.4565249
8.2844971
8.31609
8.161988
8.1036729
8.394726
8.0023983
13.810393
14.381568
14.157768
14.608551
14.408341
14.730072
14.468739
14.717585
14.328705
14.427285
14.260687
14.03062
21.559745
22.304034
22.363555
22.922186
22.93322
23.377517
23.229335
23.671659
23.208622
23.469847
22.906483
22.822645
29.374297
30.413517
30.734257
31.551279
31.811784
32.482939
32.55271
33.159969
32.668606
33.088285
32.248416
32.26191
37.152148
38.423558
39.087223
40.125031
40.702719
41.620275
41.858873
42.558805
41.893688
42.381539
40.851639
40.936752
44.643712
45.842876
47.048037
47.964304
49.083358
49.852151
50.419581
50.945669
49.833779
50.132363
47.510199
47.392509
52.44092
53.086728
55.247149
55.580839
57.493298
57.542549
58.382298
58.197271
55.935267
55.729638
51.213563
50.780619
61.458603
60.532922
65.056684
63.532649
67.349243
65.456818
66.26081
64.593528
59.224324
58.350113
50.091449
49.708063
72.388219
67.3665
78.108706
71.641567
80.989524
73.547769
76.15865
69.095798
59.221591
55.448963
42.084236
42.023902
86.397312
76.179239
94.687597
82.052285
97.367975
82.475165
88.798074
71.402585
62.317143
49.040708
33.697374
33.730478
60.590297
67.25299
61.229857
71.384428
58.155773
67.660972
51.107681
56.000618
38.821695
37.414604
26.222084
28.298009
52.108742
63.303007
51.059963
65.691092
47.833255
60.447975
42.267558
49.512529
33.359393
33.485196
25.428359
25.975206
54.554152
68.203073
54.31195
72.399455
51.78733
68.413025
46.610536
57.368241
37.180282
38.176922
27.589884
27.496873
62.430975
78.118265
63.195533
84.787667
61.31607
83.354965
56.054067
72.706112
44.963749
49.327071
31.963948
32.455336
71.354385
88.057537
73.141232
96.42012
72.016873
97.106593
66.82861
87.207456
54.275516
61.84034
38.163914
39.749488
80.695153
97.956801
83.446749
107.68278
83.093003
110.01201
78.094081
101.05898
64.278358
74.174565
45.00765
47.878394
93.397243
107.38724
98.044626
118.93203
99.613048
124.37169
96.000873
118.30129
80.965236
90.795888
55.05149
58.410587
106.77103
118.48879
116.49161
131.99648
122.87884
141.40178
124.02678
140.8293
109.78261
116.17419
74.257201
76.547072
121.55633
125.8613
135.60124
139.94692
146.57043
151.75911
154.28922
156.96145
143.87541
139.02699
98.845525
96.770096
141.29743
134.28375
157.93047
148.58389
172.06892
161.75956
183.20348
170.58437
176.12455
157.70622
122.42914
114.82879
169.21758
146.6516
187.60616
160.51135
203.80938
173.45904
211.25224
182.62458
186.64488
171.37342
123.31997
126.29352
158.396
142.76571
173.8962
155.7065
185.88099
167.43281
184.51856
173.38547
149.65639
157.16337
100.69494
117.6686
135.33005
128.66596
147.43972
139.43474
153.87527
147.90082
143.72493
148.05917
111.22538
128.4587
84.062471
102.54977
107.0571
106.94343
114.79208
115.01456
116.75114
120.48834
106.61878
118.2809
89.383419
105.359
78.374791
92.641285
82.248196
84.38436
87.70034
89.987625
90.439864
94.140881
87.295331
94.145974
80.61402
88.653575
75.900507
83.138016
65.210946
67.128202
69.495935
71.321684
72.486086
74.788249
72.466461
76.235441
70.216594
74.564444
68.70683
72.634379
52.004167
54.250968
55.169456
57.471485
57.51025
60.155567
58.303199
61.70302
58.111046
61.660522
58.672974
61.894578
39.74547
42.002328
41.886386
44.247921
43.553
46.105615
44.565263
47.4229
45.351308
48.17829
46.980156
49.632405
28.68577
30.598555
30.01521
32.000724
31.117681
33.14175
32.038117
34.102024
33.06343
35.026976
34.704737
36.564864
19.068082
20.550509
19.810477
21.311562
20.440228
21.901092
21.07997
22.469016
21.870242
23.127236
23.223479
24.348955
11.141118
12.07711
11.586185
12.502118
11.936458
12.790326
12.24843
13.019449
12.699642
13.358664
13.581181
14.076479
6.6772962
7.0080875
6.6018963
6.8905812
6.5671804
6.8210907
6.5679713
6.7798619
6.5857955
6.7766638
6.8443472
6.9480711
4.8126262
5.4003757
4.573297
5.1317296
4.4239507
4.949884
4.3314174
4.82278
4.285666
4.7366742
4.3640111
4.719648
4.6683915
5.3958572
4.2646377
4.9610863
3.9395619
4.6171884
3.6698953
4.3406759
3.4738679
4.1358087
3.599338
4.1854676
5.6641959
4.5462977
5.6027581
4.3936371
4.5383535
3.6460639
3.717172
2.9960661
2.9745731
2.3235076
2.2009793
1.6595628
6.2275367
5.9371506
4.7359447
4.3560773
4.0425127
3.6055739
3.533386
3.1275447
3.1714783
2.8273318
2.9046665
2.6075406
8.3385096
7.5925639
6.3978893
5.99426
5.7137443
5.629953
5.4997885
5.4761495
5.4621804
5.2990154
5.5251143
5.1859589
13.762947
13.280333
11.80049
11.838117
10.510118
10.882761
9.5257551
9.9296123
8.7363365
9.0008819
8.1526845
8.2032496
22.40978
22.114211
20.362558
20.86595
18.418824
19.326471
16.753193
17.602732
15.364755
15.842591
14.311064
14.347568
31.746225
31.500183
29.951147
30.694175
27.706993
28.889073
25.446469
26.467411
23.546512
23.982052
22.188877
21.98138
40.105895
39.640556
38.843439
39.111781
36.604511
37.148088
34.131496
34.414457
32.130928
31.749333
30.916421
29.768895
45.896036
44.885245
44.826017
43.982036
42.609795
41.867755
40.206998
39.264569
38.520049
37.036421
37.838802
35.642972
48.219962
46.867464
47.177642
45.732728
45.007225
43.684821
42.648989
41.328191
41.23179
39.584236
40.994445
38.776402
45.176127
44.603594
43.849543
43.565268
42.268832
42.225373
40.740752
40.679313
40.054377
39.662276
40.372865
39.404292
35.958871
37.135898
35.12952
36.863879
35.030784
36.919784
35.2574
37.073236
35.943177
37.518965
37.228173
38.343414
28.790819
31.365258
29.119775
32.681259
29.914146
33.783818
30.955579
34.898468
32.349451
36.220553
34.220529
37.982746
25.080435
27.959916
26.151742
29.836019
27.311519
31.213452
28.784155
32.615166
30.693353
34.454818
33.07586
37.219414
25.328256
25.875425
27.265069
27.84018
28.939021
29.494467
30.982966
31.359269
33.920091
33.9297
37.886086
37.843618
26.959028
26.861056
29.230646
29.28502
31.306744
31.450323
33.892406
33.888883
37.687253
37.189923
42.572674
42.19162
29.735236
29.95517
31.631678
32.358021
33.635777
34.6848
36.220605
37.244392
39.925524
40.958957
44.096489
46.741747
34.321098
34.966426
35.865061
37.197993
37.842244
39.617104
40.481605
42.271957
44.061432
46.105067
47.503879
51.654828
39.63489
40.950455
40.943293
42.889666
43.036722
45.417149
45.92622
48.372142
49.838324
52.774522
53.340645
58.91275
45.610178
47.644876
46.009882
48.882721
47.996368
51.37115
50.942965
54.669842
55.012934
59.686584
58.408431
65.159708
55.38528
59.469202
53.195724
59.942005
54.577617
62.34349
56.92925
65.193262
59.927272
68.014867
62.45925
69.07828
68.220463
72.557836
62.435812
71.722841
62.833561
73.604136
64.420398
75.443283
66.520094
76.465374
67.947475
75.164267
79.540629
85.246306
70.953881
83.592928
70.875861
85.226534
72.070779
86.452943
73.668243
86.480618
74.290755
83.709492
82.183693
94.724674
75.617256
94.127595
75.783034
96.101881
76.696978
96.818738
77.356244
95.435968
77.050542
90.609003
78.633931
96.214039
76.921399
99.391159
77.565791
101.69169
78.430814
101.45444
79.235232
98.403196
80.295302
93.144438
75.918672
93.373948
76.680727
99.695948
77.759723
101.86859
78.995714
100.80693
80.793168
97.718795
83.582147
95.307355
75.841282
91.407638
77.039562
100.95772
78.044228
103.99881
79.255949
102.85796
81.3227
99.4309
84.935537
97.325093
75.579103
84.51517
77.979938
94.606757
79.097426
97.792524
79.821692
96.355974
81.327525
92.73246
84.475925
90.878581
69.598706
74.577789
71.775244
81.762898
72.794466
83.094567
73.66524
81.784254
75.298029
80.247483
78.488701
80.394649
60.587937
64.526239
62.020988
68.622343
62.696318
69.156353
63.570152
68.632899
65.089654
68.267092
67.600988
68.892381
49.465434
52.846908
50.579284
55.176008
50.919987
55.364131
51.503807
55.060329
52.554787
54.820805
54.190704
55.076813
36.945866
39.391103
37.986154
40.706096
38.358205
40.806153
38.891291
40.768503
39.722425
40.769791
40.928271
40.99617
25.160422
26.430768
26.517587
27.538404
27.001524
27.716061
27.540387
27.884081
28.277516
28.141174
29.252462
28.521208
15.192849
15.477076
16.996761
16.823993
17.714391
17.132526
18.329621
17.426831
19.022304
17.781482
19.842747
18.221435
7.8913415
7.7623044
9.9332015
9.2897668
10.775522
9.6652759
11.316148
9.8869235
11.836882
10.136288
12.414428
10.46105
4.9002421
5.0479347
5.9264016
5.6848033
6.231367
5.6931568
6.2784672
5.6145364
6.327293
5.5845462
6.3842615
5.58036
4.4757809
4.9176449
5.4141462
5.7140018
5.3610815
5.5563053
5.1014096
5.2700082
4.859771
5.0235343
4.6284057
4.8034168
1.6985696
1.2355261
1.3615148
0.91545342
1.1494204
0.68955615
1.0020622
0.54118519
0.87579731
0.44011705
0.75849171
0.35719913
0.74987519
0.36641447
2.7589862
2.483614
2.7317717
2.4673963
2.7940788
2.5466111
2.8775481
2.6785808
2.9320968
2.7893609
2.9669404
2.8169478
3.1015462
2.8039529
5.7469171
5.3776914
6.1664163
5.7874133
6.8288055
6.4585797
7.529833
7.4145157
8.0463968
8.101771
8.5456003
8.698885
8.9890898
9.1206306
7.9305411
7.7040356
8.0213686
7.5960838
8.297006
7.7769891
8.7065972
8.161914
9.2468197
8.6903599
9.9174972
9.3432796
10.748534
10.115634
13.512642
13.269481
12.946695
12.548642
12.572029
12.040534
12.48723
11.725661
12.86683
11.812917
13.609184
12.291358
14.85736
13.254591
21.093203
20.688742
19.959321
19.70378
18.894169
18.656666
18.42007
17.775718
18.715552
17.560584
19.759134
18.085476
21.641082
19.483964
30.038392
28.7404
28.518983
27.950542
26.434122
26.574246
25.136091
24.902877
25.32857
24.170701
26.719848
24.886592
29.270777
26.803541
37.711437
35.18351
36.475213
34.999998
33.675508
33.959956
31.51112
31.947089
31.434403
30.699637
33.145017
31.356554
36.139188
33.739089
41.551911
38.818436
41.118415
39.210258
38.665718
38.88694
36.361665
37.382714
36.124008
36.160948
37.888011
36.751499
40.876254
39.26107
41.373923
39.799201
41.853075
40.534058
40.670599
41.021142
39.250466
40.579789
39.232522
40.026761
40.827218
40.671331
43.317162
42.902539
38.939772
39.426833
40.453358
40.586348
41.065053
41.563089
41.137153
42.291676
41.666055
42.872775
43.153165
43.955031
45.40768
45.967144
36.344513
39.934516
38.768699
41.829727
41.361073
43.515488
43.611181
45.010321
45.443643
46.723823
47.387678
48.898994
49.97767
51.494485
35.589097
40.671955
38.515136
44.573722
42.240276
48.587791
46.619694
51.176581
51.236296
52.9805
55.25259
56.041814
58.840052
60.553296
42.121226
42.798403
46.470582
49.205899
50.980332
56.36423
55.073564
58.553363
58.297957
58.490098
61.834563
60.911948
66.945106
66.911073
46.928212
49.18787
50.974204
56.632132
55.242203
61.340936
59.523239
62.698047
62.348317
61.966443
63.356754
63.084479
67.352007
69.059722
47.159273
51.155116
49.934183
53.595297
53.025622
55.684452
56.885969
58.179439
61.140863
60.335085
64.160504
62.948677
68.011042
71.448423
49.576821
53.696664
51.309769
54.0787
53.166682
54.888498
55.716138
56.599924
59.448183
58.735099
63.348394
61.141588
68.603947
72.380571
55.273654
60.563292
56.798529
60.714729
58.230571
61.33844
60.232407
63.395254
63.935532
66.693076
68.490946
70.239381
71.182838
75.427523
60.198299
65.730803
61.704785
65.709353
63.2431
66.451973
65.397406
68.793002
69.467851
73.88537
75.566589
80.712629
80.304216
86.690891
63.62163
68.06828
64.885195
67.874253
66.557069
68.77435
69.042474
71.146673
73.424798
76.687377
80.704766
86.149128
89.50903
96.917236
67.970511
72.274604
68.651509
71.19275
70.265478
71.677625
73.039705
73.563605
77.400164
77.611068
83.70953
84.983097
93.012084
95.537852
73.349827
79.183505
73.735975
77.405892
75.585051
77.824632
79.144874
80.070201
84.603705
84.138131
90.455533
89.305293
98.766537
97.68972
76.499805
85.188288
78.057217
83.804674
81.359255
85.222427
87.047911
89.161317
94.20459
94.689935
100.00855
99.511519
107.84447
107.05224
82.363262
90.19638
85.962573
91.095611
92.283831
94.899664
100.79999
101.30413
106.56918
107.08366
110.53591
111.02546
116.16443
117.67543
87.372041
96.289578
94.168718
100.56598
105.41583
108.96424
111.30442
114.0414
114.11434
115.3449
118.73517
120.80814
123.73084
128.10471
90.997005
98.822933
100.07149
103.78234
107.07633
110.33035
108.68074
110.21601
113.02073
112.27259
120.98998
122.08653
128.61207
134.46764
89.955923
92.51301
96.699469
96.949371
99.278773
100.93567
101.05849
100.12435
107.59103
104.279
118.70539
117.5299
131.48162
136.47242
82.961459
82.902114
86.700179
86.980384
88.126135
88.513861
91.427239
88.379779
99.185162
93.954161
112.55377
108.78888
131.09743
134.02926
70.402985
70.643644
72.85445
72.834835
75.04695
73.438172
79.238724
74.597837
86.871937
80.356437
100.41931
94.395101
122.99584
121.89096
56.102982
55.829176
58.332231
56.951069
61.046679
57.936656
64.936283
59.888401
71.224494
64.791228
82.52493
76.052651
103.6053
99.968641
42.430159
41.476079
44.375782
42.420902
46.839375
43.690339
49.996171
45.60756
54.645363
49.256539
62.902557
57.297302
79.179219
75.093114
30.446327
29.016582
32.002059
29.83547
33.827012
30.956848
35.990893
32.35823
39.146939
34.877434
44.610133
40.150219
55.791127
52.037986
20.764548
18.762289
21.829067
19.448233
23.027995
20.23892
24.424485
21.214368
26.34152
22.873261
29.580914
26.109323
36.431528
33.79802
13.065691
10.876444
13.752876
11.377269
14.526717
12.006432
15.363745
12.881898
16.343019
14.276566
17.831938
16.539242
21.223281
21.435989
6.4062378
5.5573772
6.4234991
5.5537598
6.3081635
5.4543391
6.0456785
5.2745329
5.7410199
5.154925
5.9524479
5.5721487
7.4031428
7.2653195
4.362491
4.5700358
4.0696287
4.3084524
3.659242
3.9134278
3.199101
3.4337764
2.791508
3.020304
2.6934683
2.7471023
3.205462
2.9614764
1.0051988
0.58417109
1.4720552
0.8711529
2.4922379
1.5217545
3.9974262
2.3257503
3.6214072
3.1351441
4.2144781
3.5425638
5.0093547
4.3588979
5.6981179
4.758172
9.5781266
9.5568871
9.6818662
9.7933816
9.2874159
9.8727532
9.8352353
9.2134949
12.200814
11.328182
13.458392
12.349094
15.463111
13.974308
18.473727
15.958418
17.507893
15.536096
20.13134
17.683708
24.14031
21.239709
28.721547
25.203516
25.3354
22.724268
28.95735
25.806285
34.167552
30.673521
39.100738
35.869705
33.743116
30.818814
37.976426
34.667862
42.985736
40.266203
46.254357
45.152486
40.82004
38.266342
44.829539
42.491868
48.079304
47.795382
47.848468
50.44838
45.017139
43.782776
47.759991
47.65646
48.797453
51.223392
47.84289
51.262506
46.688428
46.877622
48.775508
50.033496
49.761521
52.412564
49.981272
52.433583
48.839424
49.515309
51.493582
52.504248
53.715392
55.253332
55.807097
56.758236
53.929837
54.723219
57.482866
57.71525
61.280681
61.270557
65.866641
64.830997
62.678119
63.917606
66.469573
66.513529
71.614709
70.123425
78.768983
75.848775
71.47325
72.01699
75.611379
76.581391
81.99147
80.571321
92.880438
88.614868
73.230794
74.871239
78.956937
82.023879
86.589528
90.051499
103.2069
102.14248
70.075097
75.199139
74.145561
80.875534
82.649485
91.77722
105.11576
110.37552
67.420366
74.720683
68.219829
77.402097
77.023659
87.245081
104.38166
112.23864
68.021175
76.014879
68.226036
77.40602
78.037372
86.844068
110.26918
117.6685
76.354122
83.128811
76.771202
83.999637
87.691858
94.479677
114.45559
122.82649
92.091295
96.529574
93.396771
96.988343
101.44561
105.4626
122.64987
129.38218
104.24691
106.0348
111.29842
111.26872
121.86603
121.44953
143.65551
146.55547
114.02522
112.64682
127.59405
125.0598
143.57805
140.18323
167.23561
167.84626
122.55304
122.00226
139.10388
138.3097
160.00412
157.91736
183.55634
184.92726
127.66247
129.97452
143.42946
146.379
165.41719
168.15787
186.71565
191.22056
130.86534
135.43568
142.66167
148.07157
161.44511
167.86087
178.86096
185.89611
134.45088
141.09973
140.97165
147.67494
153.79187
161.81274
165.87939
174.01242
138.76544
147.67173
141.48891
149.39427
147.21981
155.83151
152.60238
161.33545
144.66861
155.48307
145.15623
154.81473
144.22744
152.9363
142.05541
151.01063
147.2736
155.39657
151.45812
163.67262
145.82727
154.7105
135.91281
144.39924
133.94824
136.84477
150.65928
162.3764
149.05982
159.87542
134.71985
142.35762
105.3181
106.63453
128.14291
137.49256
140.1883
154.92018
132.97183
144.63131
74.70765
75.495076
94.943093
102.09038
110.70408
127.42344
113.80135
134.144
49.16592
49.859681
63.642812
68.900374
76.023877
90.401217
83.076226
104.43451
29.377965
30.364945
37.907136
41.551628
45.296028
55.443827
50.153603
66.345159
10.997796
11.756604
14.715768
17.012916
18.021201
23.792155
19.313251
28.424321
4.2470915
4.2369065
5.0002849
6.044053
4.5101375
6.9992188
3.3073003
6.0435651
4.1641904
2.3470186
1.1784071
1.0776657
1.5011378
0.71016965
5.3862991
3.291809
1.3558454
1.0638501
2.9958549
1.9743453
8.7309482
6.9740888
4.7833602
3.8163214
8.4205083
7.0224954
5.8282448
4.9412638
5.0873061
4.6822039
11.419022
10.435129
4.5069419
4.0544546
5.2892059
5.8693687
16.340568
16.049884
5.2956528
4.9581964
7.1981243
8.2531211
22.901056
21.971153
6.6961151
6.3722566
9.6781285
10.890302
26.275506
24.173923
8.0748514
7.8149757
11.740292
13.107269
24.470363
22.344773
9.3403438
9.1448941
13.505952
14.884943
21.718715
20.85865
10.491232
10.444661
15.293494
16.498485
20.954457
20.995912
11.878771
12.091471
17.341517
18.660383
21.841811
22.506809
14.223206
14.670308
21.324503
22.852673
24.774609
25.744753
18.329447
18.760472
29.361559
30.443872
30.3983
31.317898
24.98577
24.883235
43.021687
41.708934
39.390278
38.364967
35.563722
33.622372
59.777732
54.905913
53.032667
46.886832
50.554714
45.017012
75.629238
68.079958
62.804733
55.402602
66.64826
57.060786
91.46663
84.070677
73.200194
66.881843
81.516463
69.84841
101.17696
96.110882
86.230075
81.491361
93.725018
84.069991
106.2104
105.1414
106.08516
109.38584
103.99528
96.878842
113.90714
117.09871
146.11217
158.33615
111.72327
102.7686
126.24794
127.46446
149.13235
135.0067
96.812304
78.961031
128.94819
125.79092
128.37975
124.06266
71.184028
58.673272
107.90543
88.685774
123.88119
112.3835
52.797243
45.624359
70.116751
57.572791
107.30851
87.366968
39.844664
37.315316
46.329056
42.209805
84.499881
66.477178
32.087696
32.289525
35.135199
35.106265
65.205743
55.241903
29.383895
30.974082
35.658339
35.479035
51.603016
50.410871
31.535304
33.798581
44.112395
44.475312
41.381647
46.42247
36.267105
40.2118
51.037594
56.772833
31.653294
40.172893
37.006403
44.214514
47.848855
62.700544
24.431725
31.899695
31.739817
40.648193
37.101741
56.125476
19.828103
23.812611
23.150016
31.143289
24.163473
41.582066
19.008344
17.866779
15.093104
20.541713
14.018137
25.172771
17.487496
13.84401
9.1574364
11.826775
6.1764232
12.470397
10.35776
7.4835639
2.2648398
3.3533774
1.7742818
3.8241644
2.954446
1.3740779
0.6871299
1.1637686
0.98204028
2.0798575
6.0383685
1.5824766
0.053159344
0.46903979
1.138382
1.8238946
2.6472385
3.7207252
0.035700981
1.3075001
2.8381075
3.8061241
4.5996036
5.4829583
0.38158926
0.35122211
0.86663521
1.9893962
3.7537506
5.9324171
0.14022026
1.1626064
3.3755074
6.0664784
8.3604304
9.9219834
2.206537
1.6127369
2.6026672
4.7452317
7.7035183
10.48046
0.93640968
2.7785484
5.3609673
8.6527519
11.671501
13.366595
4.4437961
3.3532147
3.5433872
4.3437725
5.431697
6.5056627
2.2498732
3.4062807
4.2673684
5.3875948
5.9169245
6.6203147
6.1250413
5.0721875
4.8510488
4.8173711
4.9310792
5.0875195
3.5217321
4.3713418
4.5653454
4.8225413
4.9629351
5.2315725
7.6941639
6.7575981
6.4159827
6.1218281
5.9450252
5.8279357
4.7505187
5.5799135
5.673746
5.7782036
5.8790179
6.0767158
9.4168288
8.4690852
8.004952
7.6019483
7.3318025
7.1354193
6.0855316
6.8230327
6.8929286
6.9750358
7.0937395
7.3127064
11.467593
10.330736
9.738842
9.220546
8.8429355
8.5733903
7.6891838
8.2848717
8.305281
8.3447441
8.4546359
8.6721659
13.983367
12.490112
11.700539
11.035923
10.494193
10.087263
9.71208
10.107937
10.05695
10.003903
10.0247
10.165045
17.061656
15.059716
13.943699
13.012258
12.221653
11.585774
12.363163
12.340979
12.032798
11.749547
11.57257
11.506342
20.738443
18.049237
16.516786
15.130278
13.986489
13.022602
15.945579
15.013236
13.933925
13.062797
12.474267
12.024474
25.138917
21.566933
19.618221
17.761747
16.14785
14.824113
20.681501
18.486994
16.027395
14.118677
12.802931
11.877746
30.471942
25.769693
23.470299
21.408637
19.458484
17.795086
26.428847
23.442339
20.152438
17.404892
15.177174
13.53029
36.92888
30.224266
27.452006
25.449486
23.48426
21.666691
33.21711
29.421194
25.615673
22.19388
19.222924
16.932578
43.859217
34.158651
30.486478
28.906699
27.391449
25.81231
40.37148
35.625689
31.637583
27.70535
24.137911
21.229176
50.031276
36.60296
31.533333
30.676289
30.156617
29.37376
46.870323
40.813682
36.865641
32.897452
28.984305
25.559663
55.902611
38.615614
31.643442
31.07038
31.515388
31.79541
53.009115
44.1323
40.137975
36.321569
32.262368
28.658819
61.453754
40.780098
31.892083
30.855989
31.927236
33.107717
57.892366
46.252304
41.537885
37.45519
33.464547
29.970209
65.434054
43.180178
32.86553
30.600599
31.530669
33.028812
61.614461
47.840841
41.483483
36.915924
32.963401
29.653201
67.987817
45.82611
34.354821
30.64484
30.623431
31.786217
63.885834
48.902372
40.619922
35.254662
31.155708
27.941664
69.705566
48.488179
35.468157
29.514397
28.31956
28.750951
65.133655
49.060481
38.844599
32.665196
28.479969
25.450703
69.188208
49.831191
35.926987
28.090427
25.274678
24.622143
64.471816
47.791464
36.195198
29.443695
25.358122
22.778617
66.361902
48.614542
35.10586
26.05776
22.02356
20.409491
61.310374
44.853387
32.432467
25.666191
22.229276
20.626061
63.25846
46.242148
33.50382
23.790647
19.441303
17.50348
56.776136
40.947837
28.568268
22.331914
19.80612
19.088932
59.985108
43.883147
31.503528
21.836313
17.732721
15.556987
50.935573
36.456866
24.894666
19.338629
17.352403
16.937416
55.973673
41.132568
29.017796
20.524995
17.043993
14.685946
43.807781
31.4973
21.537328
16.722958
14.997444
14.648874
50.53849
37.561153
26.235632
19.800947
17.321316
15.016188
36.68895
26.612458
18.522052
14.470251
13.01175
12.738475
43.647039
33.183402
23.521733
19.53582
18.476467
16.535641
30.341801
22.134538
15.843736
12.470358
11.256047
11.037255
36.371495
28.469501
21.269749
19.618756
20.12553
18.667506
24.968093
18.483639
13.536081
10.654508
9.4789209
9.2179226
29.764546
24.068233
19.496949
19.60993
21.031642
19.804576
20.486629
15.551262
11.56192
9.0036865
7.7430701
7.3676519
24.156682
20.073729
17.454094
18.217558
19.486747
17.83221
16.628191
13.047647
9.7822987
7.4315061
6.1379269
5.6555536
19.188818
16.047813
14.330639
14.842843
15.349868
13.489165
13.003085
10.559113
7.9143636
5.7738357
4.5470494
3.9925157
14.146222
11.418712
10.014031
9.9656746
9.9391524
8.4993747
9.0625235
7.4825121
5.5418687
3.8441765
2.8774736
2.5471807
7.9837217
5.795229
4.9638695
4.9219364
5.0117999
4.5467436
4.3501453
3.4349392
2.405541
1.6766026
1.3826517
1.6164853
1.5841633
0.98468804
0.85357917
0.90608153
0.98398053
0.9196522
0.71483974
0.55249566
0.40248158
0.33200049
0.34852249
0.4812911
0.21443865