/*--------------------------------*- C++ -*----------------------------------*\
| =========                 |                                                 |
| \\      /  F ield         | OpenFOAM: The Open Source CFD Toolbox           |
|  \\    /   O peration     | Version:  2206                                  |
|   \\  /    A nd           | Website:  www.openfoam.com                      |
|    \\/     M anipulation  |                                                 |
\*---------------------------------------------------------------------------*/
FoamFile
{
    version     2.0;
    format      ascii;
    arch        "LSB;label=32;scalar=64";
    class       volScalarField;
    location    "100";
    object      nut;
}
// * * * * * * * * * * * * * * * * * * * * * * * * * * * * * * * * * * * * * //

dimensions      [0 2 -1 0 0 0 0];

internalField   nonuniform List<scalar> 
50904
(
9.6611307e-07
1.4908926e-06
1.2584038e-06
1.9158335e-06
6.3968761e-06
8.072367e-06
8.2577347e-06
9.3543267e-06
2.1652602e-05
2.2660489e-05
2.245084e-05
2.3030062e-05
3.0186475e-05
3.2753181e-05
3.0372914e-05
3.4747565e-05
5.7717214e-05
6.0973414e-05
6.0453065e-05
6.7072378e-05
0.0001110414
0.00011492848
0.00011132696
0.00012054755
0.00016462633
0.00016708049
0.00015458579
0.00016404325
0.00021125991
0.00021095819
0.00018893318
0.00019729134
0.00025577233
0.00025186234
0.00021999705
0.00022605883
0.0002994789
0.00029116146
0.00024479292
0.00024761022
0.00035042996
0.0003367059
0.00025767111
0.00025723779
0.00043596072
0.00041464426
0.00027792128
0.00027288734
0.00056916988
0.00055132784
0.00035206205
0.0003377958
0.00070589049
0.00068608565
0.00048616551
0.00045911142
0.00086509356
0.00083477081
0.00065873764
0.00061465435
0.001002903
0.00096994839
0.00083555325
0.00077340838
0.0011566049
0.0011255752
0.00096291508
0.00088701931
0.0013936795
0.001224064
0.0010181914
0.00093858861
0.0014488893
0.0012973978
0.00099590744
0.00092206111
0.0012048762
0.0011739328
0.00090448184
0.00084108827
0.0010009891
0.00096494016
0.00077803949
0.00072663035
0.00086660228
0.0008221346
0.0006443611
0.0006085551
0.00080675925
0.00076140462
0.00054240604
0.00052670818
0.00066214366
0.00067855265
0.00047599354
0.00047169879
0.00056985114
0.00057596575
0.00041311477
0.00041442617
0.00051900393
0.00051608159
0.00036075766
0.00036406759
0.00049258143
0.00048037168
0.00032145959
0.00032409768
0.00045933363
0.00043815397
0.00028010606
0.00028153727
0.0003492638
0.0003407589
0.00023058036
0.00023159997
0.00030152891
0.00029066445
0.00017407872
0.00017520194
0.00022469203
0.0002033827
0.00011281119
0.00011284744
0.00013038654
0.00011490749
5.4008864e-05
5.3262568e-05
5.1528533e-05
4.567811e-05
1.8867189e-05
2.1553809e-05
1.3352343e-05
1.3425641e-05
6.1506268e-06
8.5375192e-06
9.9984447e-07
1.1021062e-06
7.7898404e-07
1.3180587e-06
1.0248706e-07
1.0197564e-07
1.8388023e-07
2.1526664e-07
1.279374e-06
2.0364691e-06
1.4524709e-06
2.2859845e-06
1.7267787e-06
2.3168024e-06
1.8062134e-06
2.1206488e-06
1.6739521e-06
1.797596e-06
1.4190437e-06
1.5071541e-06
1.1743126e-06
1.3002314e-06
7.6004075e-06
8.3809363e-06
7.2395628e-06
7.8105597e-06
7.6099114e-06
7.8433824e-06
7.4599761e-06
7.4132752e-06
6.8851737e-06
6.6873873e-06
6.1394682e-06
5.9818723e-06
5.4521086e-06
5.4697637e-06
1.9227969e-05
2.046569e-05
1.8323051e-05
1.9680474e-05
2.0423882e-05
2.1803194e-05
2.0764956e-05
2.1817812e-05
2.0104538e-05
2.1174098e-05
1.9446943e-05
2.0647404e-05
1.8983521e-05
2.0250588e-05
3.6103626e-05
4.0562642e-05
5.5731186e-05
6.385201e-05
6.8059586e-05
7.5225843e-05
7.301398e-05
7.9520723e-05
7.5306578e-05
8.1584036e-05
7.6855078e-05
8.2916598e-05
7.8079152e-05
8.3846062e-05
8.0645323e-05
8.9691962e-05
0.00012101762
0.00013302291
0.00014073346
0.00014992527
0.00015079548
0.0001578469
0.00015689749
0.0001623984
0.00016121331
0.00016537369
0.00016459334
0.00016745658
0.00013589277
0.00014664439
0.00017885306
0.00019028854
0.00019900858
0.00020673704
0.00020996973
0.00021480469
0.0002167011
0.00021952659
0.00022154157
0.00022285531
0.00022554335
0.00022555425
0.00017673899
0.00018778492
0.00021893187
0.00022957219
0.00023896095
0.00024580051
0.00025035
0.00025442878
0.00025761846
0.0002599675
0.00026310955
0.00026429107
0.00026790155
0.00026815778
0.00020779663
0.00021841588
0.00024991207
0.0002605216
0.00027093733
0.00027831488
0.00028372951
0.00028873536
0.00029239936
0.00029593426
0.00029927182
0.00030185964
0.00030549647
0.00030738539
0.00023553284
0.00024487263
0.0002792754
0.00029009527
0.00030258119
0.0003111744
0.00031747557
0.00032399498
0.0003277378
0.00033287022
0.00033584613
0.0003401272
0.00034311852
0.00034688945
0.00025618503
0.00026313503
0.00030421538
0.00031485202
0.00033202788
0.00034196016
0.0003502955
0.00035862091
0.00036265952
0.00036975893
0.00037190764
0.00037835563
0.00037954195
0.00038583051
0.00025543327
0.00026092797
0.00030315569
0.00031578119
0.00033538884
0.00034875435
0.00035771573
0.00036845571
0.00037316556
0.0003803543
0.00038478984
0.00038851002
0.00039444013
0.00039491199
0.00024163532
0.00024632815
0.00028319005
0.00029471684
0.00032434507
0.00033221699
0.00035620637
0.0003530357
0.00038081212
0.00036363876
0.00040162835
0.0003701843
0.00042111029
0.00037580398
0.00025458596
0.00025537784
0.00025316393
0.00026015427
0.00028210897
0.0002866953
0.00030852148
0.00030319317
0.00033183769
0.00031338869
0.0003532213
0.00032187916
0.00037302679
0.00033056374
0.00032330175
0.00031840715
0.00028117348
0.00027989608
0.000299572
0.00029299139
0.00031847016
0.00030121508
0.00033670909
0.00030759403
0.00035461074
0.00031510399
0.00037074216
0.00032403228
0.00042169011
0.0004086009
0.0003322125
0.00032436781
0.00034308538
0.00032763888
0.00035793387
0.00033085126
0.00037392611
0.00033570236
0.00039126146
0.00034408117
0.00040765281
0.0003552078
0.0005294738
0.00050405174
0.00038468454
0.0003727587
0.00038886592
0.00036990869
0.00040403595
0.0003740867
0.00042306533
0.00038205254
0.00044455263
0.00039437863
0.00046538647
0.00040989633
0.00061411699
0.00057433728
0.00043593818
0.00041949984
0.00043701143
0.00041426603
0.00045416142
0.00042028576
0.00047703409
0.00043136996
0.00050299046
0.00044733239
0.00052837577
0.00046676098
0.00065611337
0.00060678958
0.00047749396
0.00045884419
0.00048105826
0.00045651571
0.00050242063
0.00046613859
0.00053003179
0.00048071371
0.00056061979
0.00049993925
0.00059054778
0.00052257885
0.00065368268
0.00060551164
0.00050452107
0.00048947422
0.00052173152
0.00049980497
0.00055322389
0.00051633252
0.00058874402
0.00053488314
0.00062626349
0.00055683684
0.00066346137
0.00058215945
0.00061237367
0.00057632513
0.00051531605
0.00051238546
0.00055738868
0.00054568547
0.00060600982
0.000573888
0.00065252513
0.00059857437
0.00069805413
0.00062456392
0.00074323249
0.00065363728
0.00055785966
0.00054012532
0.00052099876
0.00053672801
0.00059253543
0.00059689381
0.00066332767
0.00063883226
0.00072488611
0.00066907179
0.00078082369
0.00069723638
0.00083499704
0.00072782203
0.00050292515
0.00050719794
0.00052892066
0.00056371033
0.00062625836
0.00064891051
0.00071748549
0.00070469572
0.00079430461
0.00074026766
0.000860963
0.00076985519
0.00092327669
0.00080106882
0.00047363068
0.0004938891
0.00054521437
0.00058830446
0.00065092405
0.00068474503
0.0007405945
0.00074873912
0.00081094203
0.00079067495
0.00086872229
0.00082440323
0.00092095423
0.00085792288
0.00044630407
0.00046799587
0.00052253027
0.00055968891
0.00060915452
0.00064180614
0.00067599066
0.00069580982
0.00072542556
0.00073265944
0.00076498446
0.00076296952
0.00080061134
0.00079256139
0.00039306028
0.00041487864
0.00045954623
0.00049573085
0.00053033683
0.00056568607
0.00058329377
0.00061077826
0.00062103529
0.00064063749
0.00064968377
0.00066387235
0.00067383658
0.00068526653
0.0003392798
0.00036116911
0.00039653114
0.00043327136
0.00045715804
0.00049528872
0.00050205389
0.00053487984
0.00053280557
0.00055975667
0.00055440972
0.00057773169
0.00057075116
0.00059297521
0.00030045129
0.00031932931
0.00035597265
0.00038745968
0.00041541355
0.00044516317
0.00045858934
0.00047953677
0.00048700646
0.00049937188
0.00050620926
0.00051299303
0.00052041479
0.00052452346
0.00026094468
0.00027538684
0.00031334134
0.00033865108
0.0003705974
0.00039379705
0.00041116531
0.00042542637
0.00043721004
0.00044280595
0.0004548534
0.00045456072
0.00046838078
0.00046482472
0.00021417701
0.00022473753
0.000259553
0.00028061288
0.0003130487
0.00033514179
0.00035072758
0.00036770723
0.00037454783
0.00038586234
0.00039057375
0.00039788062
0.00040291497
0.00040779677
0.00016089192
0.00016787478
0.00019609451
0.00021283755
0.00024508506
0.00026627497
0.00028030383
0.00029989594
0.00030223039
0.00031889452
0.00031678146
0.00033103993
0.00032795093
0.00034054296
0.00010260524
0.00010592102
0.00012537004
0.00013655117
0.00016769776
0.00018612396
0.00020084801
0.00022040095
0.00022084723
0.00023924046
0.00023343029
0.00025049943
0.00024275764
0.00025875057
4.7979169e-05
4.8946555e-05
5.84585e-05
6.3599432e-05
8.6080217e-05
9.8542503e-05
0.00011334403
0.00012912388
0.00013012704
0.00014588073
0.00013965016
0.0001549166
0.00014610279
0.00016085321
1.9262381e-05
2.1230189e-05
2.0817119e-05
2.2363915e-05
2.8468728e-05
3.2850416e-05
4.0673802e-05
4.7925706e-05
4.9716509e-05
5.7674569e-05
5.4557964e-05
6.2424107e-05
5.7386289e-05
6.5176812e-05
8.9224589e-06
1.1766087e-05
1.1949661e-05
1.24306e-05
1.1308056e-05
1.1874818e-05
1.2282745e-05
1.3535251e-05
1.3624965e-05
1.5181253e-05
1.3607819e-05
1.5809904e-05
1.2829805e-05
1.5499481e-05
2.0700251e-06
2.9180564e-06
3.6865029e-06
3.9062832e-06
4.1014303e-06
4.4742538e-06
4.5150502e-06
5.0431102e-06
4.4397527e-06
4.990651e-06
4.1369482e-06
4.6337389e-06
3.8471472e-06
4.3316666e-06
3.9388756e-07
4.8432308e-07
5.8485602e-07
6.4680439e-07
7.2574037e-07
8.3504532e-07
9.6394827e-07
1.1125364e-06
1.0805069e-06
1.2438159e-06
1.051135e-06
1.2166208e-06
9.6206373e-07
1.1221302e-06
9.9149908e-07
1.1573403e-06
8.9545577e-07
1.0650151e-06
8.3587164e-07
9.9355517e-07
8.1050226e-07
9.406752e-07
8.5273533e-07
9.1360835e-07
9.8077136e-07
9.1564814e-07
5.0333369e-06
5.2131584e-06
4.8512584e-06
5.1248763e-06
4.871308e-06
5.1591109e-06
5.0639703e-06
5.2759794e-06
5.4991612e-06
5.4945202e-06
6.1695757e-06
5.778477e-06
1.8760502e-05
2.0139806e-05
1.9074298e-05
2.049054e-05
1.9566869e-05
2.0892358e-05
2.0294919e-05
2.1358542e-05
2.1803911e-05
2.2123273e-05
2.5398236e-05
2.3688091e-05
7.9187963e-05
8.4563681e-05
8.0967502e-05
8.5446691e-05
8.2623118e-05
8.6063931e-05
8.4253202e-05
8.6490934e-05
8.6553963e-05
8.6726435e-05
8.9809061e-05
8.6332013e-05
0.00016750636
0.00016903213
0.00017002598
0.00017015656
0.00014919534
0.00017077636
0.00012876882
0.00012966129
0.00015613541
0.00015542632
0.00017195607
0.00016428929
0.00022924957
0.00022796914
0.00023243491
0.00022988007
0.00018012774
0.00022663712
0.0001490201
0.00015138037
0.00017566507
0.0001780271
0.00022265195
0.00022693199
0.00027257994
0.00027195019
0.00027671739
0.00027531909
0.00019444491
0.00020484625
0.00015747773
0.0001607233
0.00018681756
0.00019075876
0.00024804168
0.00026972645
0.0003117362
0.00031298405
0.00031747565
0.00031821145
0.00019213047
0.00020142673
0.00015514425
0.00015880443
0.00018898236
0.00019346063
0.00026727258
0.00029154778
0.00035030893
0.00035376345
0.00033857231
0.00036015536
0.00017694606
0.00018810145
0.00014547141
0.00015050758
0.00018436229
0.00018924848
0.00027931382
0.00030583858
0.00038629407
0.00039289454
0.00030506141
0.000340618
0.00016674451
0.00017492326
0.00014236711
0.00014374205
0.00017843723
0.00018110551
0.0002764567
0.00030699855
0.00040301215
0.00040028024
0.0003436545
0.00031722762
0.00020743891
0.00017764007
0.00017861054
0.00014801428
0.0001862892
0.00016434573
0.00025551522
0.00027820874
0.00044056641
0.00038104675
0.00045622505
0.00029489486
0.00030026904
0.00019006821
0.00025176074
0.00015973199
0.0002464386
0.00015545669
0.00035252108
0.00032646656
0.00038947309
0.0003383039
0.00028749621
0.00023794935
0.00019306864
0.00016304123
0.0001742144
0.00014042731
0.00019921985
0.00013825846
0.00052185605
0.00045922171
0.0003631841
0.00033184619
0.00022072425
0.00022647766
0.00016306418
0.00015896924
0.00015898116
0.00014162541
0.00019740614
0.00014991759
0.00059836318
0.00052579877
0.0003811658
0.00036625199
0.00024306514
0.00027492811
0.00018998211
0.00019920302
0.00019672857
0.00018776931
0.00025894921
0.00020892278
0.00057520892
0.00048267164
0.00045955856
0.00042636884
0.0002960633
0.00035443707
0.000237667
0.00026554249
0.00025655409
0.00026274224
0.00035005661
0.00030687573
0.00059689858
0.00048164712
0.00054360304
0.00048805796
0.00035096669
0.00042633127
0.00028570156
0.00032433769
0.00031700346
0.00032836975
0.00044646635
0.00040210543
0.00066005486
0.00053182544
0.00061620839
0.00054787719
0.00040721591
0.00049478235
0.00033233549
0.00037414196
0.00037300698
0.00037991162
0.0005380293
0.00047651387
0.00073448997
0.00060164699
0.00069900496
0.00061121349
0.00050471914
0.00058477697
0.00040301384
0.00042916167
0.00044674665
0.00042854221
0.00064567067
0.00053922414
0.00080557427
0.00066780702
0.00079017243
0.00068773452
0.00067121142
0.00072197729
0.00051249063
0.00050877457
0.00055035253
0.00048880548
0.0007865244
0.00061511214
0.0009140007
0.00074134736
0.00089332063
0.00076437167
0.00093884961
0.00080367423
0.00066849951
0.00057954358
0.00067770671
0.00053545339
0.00093971723
0.00066505206
0.0010328724
0.0008380804
0.00099017619
0.00083943362
0.0010620194
0.0008824334
0.00092435896
0.0006574639
0.00087795887
0.00058707644
0.0011198192
0.00072036292
0.0011349221
0.00093176094
0.00097723902
0.0008978631
0.0010387866
0.00094352369
0.00090694987
0.00079984315
0.00081143282
0.00068458068
0.00092456502
0.0008078582
0.0010453986
0.000973503
0.00083904734
0.00082679005
0.00088011929
0.0008653896
0.00062251337
0.00064879557
0.00056057422
0.00056599025
0.00063264006
0.00067984367
0.0008737512
0.00091198533
0.0006981389
0.00070867667
0.00058840487
0.00067758105
0.00039922866
0.00041270578
0.00036841439
0.00037373619
0.00043065575
0.00048028028
0.00072787201
0.00082169523
0.000585148
0.00060846193
0.00033185786
0.00043074138
0.00023685773
0.00027217657
0.00023375873
0.00026214974
0.00033867824
0.00038962831
0.00064118901
0.00073281256
0.00051052946
0.00053664179
0.00024752697
0.00034825783
0.00017785736
0.00021698538
0.00019804617
0.0002186448
0.00032765554
0.00035444977
0.00055650322
0.00064382808
0.00048123178
0.00047618905
0.00024294932
0.00033316643
0.00017532199
0.00020846383
0.00020109553
0.00021310407
0.00032495684
0.00034017223
0.00049468755
0.00057672829
0.00041479245
0.00041831666
0.00023258073
0.00031088177
0.00017679484
0.00020517858
0.00020750848
0.00021580848
0.00032090391
0.00033528596
0.00043222983
0.00050497198
0.00033860032
0.00035004683
0.00021449093
0.00027663333
0.00017388689
0.00019700388
0.00020900202
0.00021585469
0.00030830685
0.00032697981
0.00036803741
0.00042257801
0.00025128657
0.00026640312
0.00018578122
0.00022937772
0.00016098447
0.00017749699
0.00019825604
0.00020387846
0.00028515945
0.00030727386
0.00031288046
0.00031960197
0.00015159972
0.00016588282
0.00014388719
0.00016977853
0.00013520146
0.00014604673
0.00017070665
0.00018090371
0.00017975268
0.00019039584
0.00019262115
0.00020144211
5.9639323e-05
6.7355974e-05
6.1969184e-05
6.9476962e-05
6.43456e-05
7.143496e-05
6.7179559e-05
7.3827444e-05
7.1068107e-05
7.7147243e-05
7.8556316e-05
8.3622804e-05
1.214021e-05
1.4368163e-05
1.2297791e-05
1.4382577e-05
1.3454804e-05
1.5510038e-05
1.5209469e-05
1.6524341e-05
1.5648789e-05
1.6843685e-05
1.698322e-05
1.7910803e-05
3.6705628e-06
4.1519167e-06
3.5100136e-06
3.9809054e-06
3.4101218e-06
3.8572827e-06
3.3421722e-06
3.7705291e-06
3.2825368e-06
3.6979392e-06
3.2914663e-06
3.6436379e-06
8.7517631e-07
1.0283437e-06
7.9917755e-07
9.4547002e-07
7.3799612e-07
8.7993244e-07
6.8710837e-07
8.2717139e-07
6.4959472e-07
7.8779308e-07
6.7131265e-07
7.9638924e-07
1.1213535e-06
9.3290665e-07
1.1108085e-06
9.0255395e-07
9.0172235e-07
7.5033132e-07
7.3973339e-07
6.1746396e-07
5.9279857e-07
4.7955283e-07
4.3930076e-07
3.4303536e-07
5.7932789e-06
5.2902749e-06
4.5260693e-06
3.932527e-06
3.6531927e-06
3.1191426e-06
3.0389182e-06
2.6423538e-06
2.6148594e-06
2.3702061e-06
2.327498e-06
2.1797734e-06
2.6822666e-05
2.3864472e-05
2.0404079e-05
1.8536635e-05
1.6776903e-05
1.6210731e-05
1.5013948e-05
1.4987343e-05
1.3957116e-05
1.4034056e-05
1.315484e-05
1.3237711e-05
8.5527726e-05
7.9380766e-05
6.8577318e-05
6.4993507e-05
5.8145362e-05
5.2514399e-05
4.6828134e-05
3.3791183e-05
4.6510086e-05
3.4442644e-05
4.2105163e-05
4.2791672e-05
0.00016023836
0.00014922422
0.00011444264
0.00012373569
7.2079525e-05
6.5882533e-05
5.963285e-05
4.5358972e-05
7.2867572e-05
4.8067385e-05
8.9893953e-05
7.0242745e-05
0.00020927466
0.00020779315
0.00014071643
0.00015366489
9.1312203e-05
8.3664768e-05
7.8980167e-05
6.00018e-05
0.00010483359
6.8450075e-05
0.00012274247
0.00011395405
0.00024753157
0.00025978365
0.00017027703
0.00018411824
0.00011213369
0.00010294662
0.00010173618
7.854572e-05
0.00015013852
9.7937657e-05
0.00018260183
0.00018884459
0.00028581589
0.00031109782
0.00019785991
0.00021459922
0.00013145166
0.00012400484
0.00012644075
0.00010268056
0.00020786684
0.00014157799
0.00026578744
0.000286598
0.00032258168
0.00036092876
0.00022294906
0.00024419119
0.00014449279
0.00014098711
0.00014139688
0.00012347119
0.00024994112
0.00018515921
0.00033657045
0.00035588296
0.00034563215
0.00042250983
0.00025115446
0.00028518131
0.00016540802
0.00016525054
0.00016513645
0.00014801572
0.00028850842
0.0002195698
0.0003601852
0.00035482188
0.00036963259
0.00048451919
0.00031902883
0.00037962636
0.00024884883
0.00026020603
0.00026707226
0.00024889979
0.00036139496
0.00028704338
0.00034444796
0.00033128538
0.00060156517
0.00062102303
0.00056844401
0.00064504318
0.00041484521
0.00040281978
0.00035538529
0.00033013634
0.00037177584
0.00035382245
0.00044275577
0.00034849686
0.00072489317
0.00064360895
0.00077472304
0.00066081054
0.00058905341
0.00067170483
0.00042035356
0.00060709181
0.0004223999
0.00054162539
0.0005651461
0.00051283544
0.00068624792
0.00056159773
0.0007206238
0.00056572976
0.00074529743
0.00057362395
0.00050843807
0.00058651367
0.00042822827
0.0006057042
0.00044144914
0.00063494145
0.00063872167
0.00050792162
0.00066462774
0.00051132823
0.00068596187
0.00052069247
0.00044686389
0.00053594524
0.00031311828
0.00055849314
0.00032268833
0.00056272618
0.00064816163
0.00050736437
0.00066913503
0.00051069422
0.00068761858
0.0005195171
0.00038037808
0.00053387686
0.00026094273
0.00031545232
0.00027782305
0.00021265005
0.00071195236
0.00054957523
0.00073535577
0.00055127447
0.00075517414
0.00055906392
0.00036032155
0.00054770808
0.00026069033
0.00026096786
0.00027959594
0.00018851193
0.00079683181
0.0006153865
0.00082944676
0.00061791209
0.0008551076
0.00062689434
0.00037647874
0.00057755756
0.0002765264
0.00025144568
0.00029862711
0.00019746901
0.00086289814
0.00067621061
0.00090176711
0.00067861041
0.0009181719
0.00068902915
0.00036522411
0.00048512609
0.00027695711
0.00021390989
0.00031116143
0.00020710174
0.00092181261
0.0007415966
0.00095387139
0.00074413649
0.000668355
0.00054465474
0.00036219098
0.00027937794
0.00027918398
0.00021074541
0.00031051131
0.00023710038
0.00096337351
0.00077776641
0.00096543068
0.0007532619
0.00068606437
0.00053788397
0.00037787866
0.00029132515
0.00028823502
0.00022581263
0.00030728948
0.00024827136
0.00099943144
0.00082885567
0.00098338454
0.00078821355
0.00078010817
0.00061353435
0.00042553967
0.00033856272
0.00031883138
0.00026123657
0.00032244172
0.00027215975
0.00095667762
0.00085977725
0.00095162841
0.00082300433
0.00057554148
0.00071039791
0.00031588047
0.00038187003
0.00024760894
0.00029114816
0.00028623092
0.00030236896
0.00096881559
0.00084240576
0.00087698372
0.0008224219
0.00040273515
0.00060823481
0.00026720586
0.00033286552
0.00027548628
0.00026767869
0.00055282518
0.00032905826
0.00097124139
0.00079325819
0.00076272336
0.0007863404
0.00043664559
0.00042404603
0.00036996535
0.0002583127
0.00049866303
0.00026074924
0.0010490623
0.00053370609
0.00084358313
0.00070870959
0.0006588049
0.00069832461
0.0004457327
0.00037211328
0.00045718309
0.00023718047
0.00081235223
0.00026903398
0.0010358468
0.00071507934
0.00069821826
0.00061846756
0.00055552125
0.00060174231
0.00036883155
0.0003019112
0.00038199086
0.00020155164
0.00072795136
0.00025258692
0.00083502097
0.00075128322
0.00058595685
0.00056303461
0.00049092524
0.00049120114
0.00036691741
0.00025210667
0.00041030623
0.0002072123
0.00065692816
0.00032246222
0.00046695023
0.00067557551
0.00045545986
0.00051248515
0.00040616924
0.00041417479
0.00034880913
0.00026396215
0.00037244762
0.00023502073
0.00043756225
0.00033056196
0.0003450245
0.00047563272
0.00034498363
0.00041078888
0.00030683596
0.00032773923
0.00027698708
0.00023486216
0.00028320545
0.00020288475
0.00031861203
0.00024769739
0.00031437443
0.00032452444
0.00028239202
0.00032843164
0.00024989731
0.00026874723
0.00022723995
0.00020213465
0.00022656526
0.00016920918
0.00025482573
0.00018913175
0.00029412888
0.00024487299
0.00021002394
0.00021713962
0.00022256609
0.00022234829
0.00021088165
0.00018659716
0.00020001066
0.00014531249
0.00022300774
0.00015127679
0.00025002616
0.00020422907
9.3133675e-05
9.6776359e-05
0.00010847302
0.00010847167
0.00011175281
0.00010925166
0.00011455127
0.00011042563
0.00011802455
0.00011251184
0.00012207269
0.00011516375
2.1570553e-05
2.1899047e-05
3.0873577e-05
2.9777735e-05
3.3661769e-05
3.127173e-05
3.5043113e-05
3.1952368e-05
3.6256364e-05
3.2613134e-05
3.7485651e-05
3.3317878e-05
3.7751175e-06
3.9724408e-06
4.972875e-06
4.8563028e-06
5.5516643e-06
5.1084261e-06
5.6976422e-06
5.1279425e-06
5.7942099e-06
5.1516805e-06
5.8696702e-06
5.1757257e-06
8.3061692e-07
9.3277311e-07
1.0000566e-06
1.0804268e-06
9.8939476e-07
1.0503897e-06
9.4153414e-07
9.966473e-07
8.972598e-07
9.5056248e-07
8.5500608e-07
9.0952988e-07
3.3884163e-07
2.5519157e-07
2.7180933e-07
1.892285e-07
2.2954068e-07
1.4259274e-07
2.000594e-07
1.1189247e-07
1.7463906e-07
9.0892424e-08
1.5075986e-07
7.3529116e-08
1.4762652e-07
7.4620019e-08
2.1805513e-06
2.0708438e-06
2.1574205e-06
2.0632408e-06
2.2381008e-06
2.1620314e-06
2.3573768e-06
2.3316783e-06
2.4587336e-06
2.4979985e-06
2.5220848e-06
2.5683031e-06
2.635826e-06
2.5556703e-06
1.256751e-05
1.2814421e-05
1.2563848e-05
1.2844909e-05
1.3011613e-05
1.3352351e-05
1.3646002e-05
1.430665e-05
1.4216255e-05
1.5107354e-05
1.4871734e-05
1.5774376e-05
1.54061e-05
1.6082753e-05
3.8696469e-05
3.8867169e-05
3.6888741e-05
3.6488014e-05
3.6027121e-05
3.5399529e-05
3.5782499e-05
3.5050069e-05
3.6305913e-05
3.5262212e-05
3.7917095e-05
3.6128064e-05
4.184024e-05
3.8385909e-05
7.6899789e-05
7.97259e-05
7.5160884e-05
7.2963339e-05
9.4272772e-05
7.993899e-05
9.3353744e-05
8.7710369e-05
9.4804236e-05
8.7312177e-05
9.9591035e-05
8.9129259e-05
0.00011163411
9.6162599e-05
8.3631677e-05
0.00011264377
7.2905643e-05
8.134666e-05
9.8027588e-05
8.0160561e-05
0.00019061278
0.00012032575
0.00019973082
0.00018202433
0.00021313701
0.00019000715
0.00023912928
0.00020813863
9.9535459e-05
0.0001729009
7.6499721e-05
0.000102121
9.7829585e-05
8.9101883e-05
0.00020154306
0.00012723692
0.0003319111
0.00023315214
0.00035771497
0.0003203356
0.00039926623
0.00035286973
0.00012083808
0.00024840508
8.4738673e-05
0.00013290338
0.00010257191
0.00010745196
0.000211046
0.00014266848
0.00043411806
0.00026158125
0.00049414639
0.00038226197
0.00049524474
0.00045049074
0.00014411554
0.00028920108
9.9358894e-05
0.00016660356
0.00011836975
0.00013786334
0.00023453259
0.00017551741
0.00048815106
0.00030198804
0.00054945135
0.00044357563
0.0005600786
0.00052474431
0.00017039475
0.00029869075
0.00012401402
0.00021929083
0.00015172073
0.00018746532
0.00028638115
0.00023547026
0.00054485567
0.0003674255
0.00063131996
0.00051306029
0.0007137878
0.00063563613
0.00022778765
0.00027528586
0.00018807433
0.00025593886
0.00022837782
0.00029656095
0.00037774576
0.00035581134
0.00063269184
0.00048055829
0.00079765231
0.00059994517
0.0010075897
0.00077624885
0.00046303148
0.00031245341
0.00041790674
0.00030702921
0.00044929916
0.00038032961
0.00055643547
0.0005355973
0.00078129266
0.00064565824
0.0010062394
0.00068397458
0.0012291786
0.00080643896
0.00075065995
0.00043910434
0.00085431646
0.00035818106
0.00094777941
0.00033115471
0.0010271778
0.00046029758
0.00099446908
0.00074856717
0.0010707477
0.00084052736
0.0011308459
0.00089206559
0.00046177329
0.00067034838
0.00048960474
0.00029400443
0.00057137695
0.00025141298
0.00070659658
0.00038398737
0.0010304334
0.00073707521
0.0011896547
0.0011546255
0.0011389994
0.0012470151
0.00039918192
0.0002905358
0.00051580228
0.00026265474
0.00061360674
0.0003185297
0.00063981845
0.00041794275
0.00078687223
0.00064621047
0.0012170463
0.0011320617
0.0015176802
0.0014597172
0.00036965193
0.0002316824
0.00054393636
0.00033218358
0.00080958816
0.00045292248
0.00088625558
0.00051622598
0.00090991326
0.00065099557
0.0011119512
0.0010006566
0.001534707
0.0014508627
0.00036973439
0.00024287848
0.00056403867
0.0004245292
0.0009898511
0.00064082901
0.0011185766
0.00070314451
0.0011485876
0.00078742611
0.0011916918
0.00094230288
0.0014733358
0.0013966012
0.00038280897
0.00026169382
0.00056953501
0.00046573568
0.0010964986
0.00086374191
0.0013045451
0.00098116104
0.0013350176
0.0010293174
0.0013743227
0.0011117797
0.0015443903
0.0014539313
0.00040968836
0.00029817242
0.00061702948
0.00054063567
0.0011998152
0.0010940948
0.001534959
0.0012605375
0.0015904222
0.0013123956
0.0016589064
0.0013956827
0.0017957346
0.0016749126
0.0004303563
0.00035804548
0.00069200393
0.00063961883
0.0013483231
0.0013321656
0.0017435303
0.001475854
0.0018317172
0.0015622507
0.0019221682
0.0016607976
0.0020307258
0.0018415572
0.00042328461
0.00036594478
0.00073836618
0.00065943518
0.001498565
0.0013739039
0.0019477737
0.0017115469
0.0020865057
0.0018516136
0.0022111026
0.0019755492
0.0023198008
0.0021035131
0.0004166049
0.0003588003
0.00080308871
0.00065816186
0.0018697596
0.0016045353
0.0020822239
0.0018799403
0.002285256
0.0020937194
0.002463205
0.0022838872
0.0026077934
0.0024504109
0.00054555671
0.00040950155
0.0012736875
0.00083223712
0.0019107197
0.0017075285
0.0021212194
0.0019407975
0.0022937816
0.0022001088
0.0025788969
0.0024405844
0.0027693395
0.0026644266
0.00098482598
0.00063679344
0.0014932108
0.0013473846
0.0011214739
0.0014492624
0.0011699038
0.0013520311
0.0018637173
0.0017873305
0.0025563452
0.0024198005
0.0027774711
0.0026865219
0.0012406612
0.0011632695
0.00063311355
0.00071522148
0.00058960554
0.00056354615
0.00098596481
0.00083911612
0.0017327315
0.0017478747
0.0020311393
0.0020695844
0.0026415019
0.002544767
0.00054270276
0.00097158872
0.00036930818
0.00043081043
0.00051105673
0.00044260499
0.0011619568
0.00090629235
0.0016496446
0.0016985502
0.0016937996
0.0017331961
0.0020235564
0.0018737462
0.00035649098
0.00065913596
0.00031343035
0.00035073611
0.00055087725
0.00042721868
0.0012442024
0.00095315424
0.001480059
0.0013820495
0.0014653395
0.0015267154
0.0015372406
0.0014721174
0.00028142274
0.00042224683
0.00031423203
0.00030559329
0.00063808712
0.00043056624
0.0011161821
0.00091784587
0.0011944686
0.0011041511
0.0012358177
0.0012065691
0.0011603265
0.0011646055
0.00028189383
0.00032848399
0.00036422362
0.00029581278
0.00068137465
0.00045454222
0.00087689741
0.00081345124
0.00092606313
0.00085680165
0.00098572688
0.00092117022
0.00087008192
0.00093666231
0.00031525715
0.00029271099
0.00041876526
0.00030862747
0.00063408208
0.00046986474
0.00066677645
0.00061961656
0.00069824261
0.00064405625
0.00073584265
0.00068442435
0.00069569365
0.00075771475
0.00033786833
0.00027114047
0.00043157148
0.00031932752
0.00045460022
0.00042408154
0.0004755552
0.00043928006
0.00049589697
0.0004521617
0.00052207506
0.00047650897
0.00056734479
0.00053327056
0.00025990406
0.00024722375
0.0002715572
0.00025434674
0.00028289945
0.00026157138
0.00029266874
0.00026599639
0.00030310216
0.00027055853
0.00031795686
0.0002807507
0.00035888168
0.00032142818
0.00012594087
0.00011742187
0.00013016172
0.00011948046
0.00013367354
0.00012040829
0.00013614796
0.00012009732
0.00013871425
0.00012005819
0.00014388676
0.00012182838
0.00016948648
0.00014429658
3.859573e-05
3.3870344e-05
3.9677477e-05
3.4444899e-05
4.0364616e-05
3.4663484e-05
4.0578324e-05
3.4714194e-05
4.0602475e-05
3.5185748e-05
4.1420773e-05
3.6198988e-05
4.9732477e-05
4.4618195e-05
5.8795188e-06
5.1501323e-06
5.8602093e-06
5.1158563e-06
5.674447e-06
4.9466241e-06
5.3285653e-06
4.6785483e-06
4.9219395e-06
4.454633e-06
4.8874628e-06
4.600494e-06
5.8263873e-06
5.6535075e-06
8.0400256e-07
8.6335796e-07
7.4865645e-07
8.1230958e-07
6.7123046e-07
7.3553479e-07
5.8365487e-07
6.4166466e-07
5.0377867e-07
5.578822e-07
4.7531762e-07
4.9553728e-07
5.4144289e-07
5.1020413e-07
1.9584625e-07
1.1731074e-07
2.8211154e-07
1.7127611e-07
4.6530703e-07
2.8944358e-07
7.194659e-07
4.2432592e-07
3.0322708e-06
2.8060046e-06
3.4372635e-06
3.0595879e-06
3.9846369e-06
3.573639e-06
4.4896068e-06
3.7317171e-06
1.6745709e-05
1.7114296e-05
1.7734739e-05
1.7589181e-05
2.2275162e-05
1.9624178e-05
2.7216895e-05
2.1506114e-05
5.3099403e-05
4.622838e-05
6.63463e-05
5.4264236e-05
9.0500281e-05
7.0913176e-05
0.00011795623
8.8896975e-05
0.00014482418
0.00012108492
0.00018049633
0.00014644052
0.0002307313
0.00018995127
0.00027243126
0.00022681965
0.00029480434
0.00025440029
0.00034507791
0.00029651094
0.0003860146
0.00035414751
0.00032879395
0.00037932003
0.00047246057
0.00041684885
0.00044288487
0.00047116435
0.0003979034
0.00044659604
0.00039391191
0.00040254981
0.00050399573
0.0005067914
0.00048748161
0.00052087463
0.00049749011
0.00049980705
0.00060844501
0.00051093865
0.00059496033
0.0005881113
0.00063861727
0.00061751822
0.00077650662
0.00065523056
0.0012420422
0.00081041999
0.00082704042
0.00074397397
0.00098972608
0.0008393698
0.0013190396
0.00099474731
0.0018911014
0.0013823153
0.0012069026
0.00097569743
0.0014287889
0.0011761466
0.0017395303
0.0014037402
0.0021992369
0.0017984137