/*--------------------------------*- C++ -*----------------------------------*\
| =========                 |                                                 |
| \\      /  F ield         | OpenFOAM: The Open Source CFD Toolbox           |
|  \\    /   O peration     | Version:  2206                                  |
|   \\  /    A nd           | Website:  www.openfoam.com                      |
|    \\/     M anipulation  |                                                 |
\*---------------------------------------------------------------------------*/
FoamFile
{
    version     2.0;
    format      ascii;
    arch        "LSB;label=32;scalar=64";
    class       volScalarField;
    location    "100";
    object      omega;
}
// * * * * * * * * * * * * * * * * * * * * * * * * * * * * * * * * * * * * * //

dimensions      [0 0 -1 0 0 0 0];

internalField   nonuniform List<scalar> 
50904
(
5229568.4
5149280.7
5201834
5097279.7
1248198.4
1247697.2
1336893.2
1295295.4
530546.72
518031.58
586991.58
545039.28
230041.48
224899.06
235484.04
220988.31
91400.218
89719.399
92937.387
90077.681
52488.13
52048.229
57368.924
57283.853
42986.306
43040.369
49504.752
50132.03
40031.104
40249.555
47691.911
48441.989
38542.216
38707.36
47343.451
47813.468
37249.906
37168.989
47180.035
46989.213
35134.92
34772.523
45695.397
44745.539
31669.278
31194.709
40604.337
39531.209
28347.98
27829.61
34967.94
33663.783
25926.873
25642.525
31412.521
30214.038
24188.929
24275.007
29011.236
28080.524
23198.158
23747.385
27541.706
26938.704
22951.437
23965.082
26925.37
26555.151
23107.037
24542.583
26858.178
26683.139
23576.727
25279.566
27337.495
27283.94
24274.214
26046.285
28374.523
28335.473
24782.045
26435.229
30068.25
30014.69
25113.779
26260.998
32914.187
32964.107
25469.849
26049.756
36628.837
36810.833
25965.686
26140.456
39613.927
39637.689
26176.735
26231.157
40760.269
40599.405
26689.826
26860.96
40397.282
40241.193
28399.114
28639.38
39568.216
39613.868
32816.425
32563.329
39473.098
39675.358
41799.228
40123.151
39859.38
40215.975
53181.651
48881.384
41876.601
42589.06
66335.911
59220.613
49081.667
50340.205
85336.61
78994.988
70889.799
75846.777
140427.26
140330.66
150420.12
176061.11
336874.03
347769.52
396865.46
447181.8
940838.4
943959.9
1023535.4
1062752.2
5362151.6
5356678.9
5408348.2
5387921.7
5148824.1
5016576.1
5109359.2
4968569.4
5104468.8
4951587.3
5100078
4935999.2
5091265.4
4919970.6
5080063.8
4907645.6
5070407.3
4900074.8
1340608.4
1275631.3
1306170.5
1238578.8
1276067
1223058.9
1270534.3
1246974.6
1305771.6
1301510.9
1368706.4
1364496.2
1442368.9
1417534.2
550838.33
493367.59
399202.59
349956.7
370667.28
343752.56
382311.23
361078.58
401952.25
380850.82
421106.2
397901.74
437001.77
411690.98
192328.83
177622.11
157061.08
147185.23
156535.17
151733.06
161913.25
158312.92
166492.65
163010.14
169943.7
166156.86
172472.85
168384.82
88715.534
86532.97
97223.388
97683.038
106449.98
108543.35
113772.09
116539.48
118931.47
122032.55
122732.19
126003.35
125848.18
129160.49
64906.061
65388.081
84029.714
87061.107
97397.127
101777.91
107247.16
112370.6
114334.22
119800.67
119672.01
125240.67
124070.92
129567.72
59803.639
60927.452
82999.339
86817.161
99158.105
104292.5
111099.65
116813.71
119697.68
125530.09
126143.11
131859.1
131418.28
136851.84
59380.733
60484.088
85288.524
88909.554
103409.42
108059.91
116619.16
121499.66
125938.63
130635.6
132760.52
137104.95
138215.24
142096.73
60220.691
60687.397
88411.349
90753.191
107845.62
110763.1
121813.43
124622.93
131595.79
133969.03
138738.91
140549.95
144446.16
145607.45
61275.044
60464.179
91554.313
91574.324
112028.02
111981.97
126676.2
126078.66
137174.97
135737.49
145253.77
142810.11
152204.8
148592.19
61049.492
58636.693
94495.011
91496.101
117593.3
113624.53
134565.02
129469.31
147444.6
141069.8
158291.18
150473.41
168592.04
159147.01
54342.786
51933.398
88622.894
86089.711
116091.07
113303.82
138159.07
135504.27
155462.35
153560.59
169930.94
169306.89
183095.99
184304.34
44327.685
42066.595
68672.957
67924.696
89681.63
93160.757
107845.3
117992.35
122955.43
140880.87
135702.18
161667.12
146633.87
180760.4
38076.89
36201.719
55934.221
55914.192
73126.886
78867.118
89729.107
104464.67
104978.97
129599.47
118351.98
152515.71
129425.06
172807.82
33952.721
32577.826
47587.806
48275.793
63051.305
69942.046
79630.719
96188.055
95966.596
122930.4
110567.7
147200.94
122520.31
168104.8
31559.741
30659.605
43126.956
44440.67
58784.826
66267.16
76708.419
93463.937
94339.316
121040.4
109579.8
145494.63
121583.08
165858.36
30428.201
29883.852
40894.21
42911.244
57010.316
65248.08
76035.896
93178.462
94510
121000
109986.48
144995.01
121764.39
164290.46
30230.78
29977.051
40478.77
43210.828
57431.789
66590.459
77311.106
95139.664
96132.437
122746.71
111468.06
145847.23
122843.54
163876.44
31134.327
31033.293
41998.67
45316.509
59644.022
69482.289
79899.588
97735.419
98696.533
123973.25
113819.61
145340.92
125083.74
161835.53
33376.424
33344.659
45977.359
49638.359
64168.468
74163.144
83821.73
101197.57
101494.51
125321.03
115634.31
144607.57
126392.42
159509.23
37103.726
37142.008
52548.112
55929.088
71432.858
79948.356
89916.09
104188.59
105654.16
124831.24
118089.52
141065.14
127748.49
153654.51
43125.523
43302.196
63928.504
66079.165
85797.663
89943.961
104136.82
110873.49
117740.8
127537.84
127742.42
140478.48
135483.44
150688.6
51032.853
51220.703
78310.387
78625.324
105555.72
104202.14
127951.96
124070.54
144250.15
138160.44
156011.89
148298.5
164944.89
156083.56
57094.167
56456.356
87291.84
85284.118
116204.18
111495.82
139697.93
131915.36
156918.5
146512.87
169584.18
157025.61
179463.5
165104.75
59292.217
57894.877
89513.019
86418.541
118179.46
113057.94
141735.55
134899.09
159389.16
151342.59
172720.51
163503.99
183451.5
172870.81
58060.817
56432.849
86112.229
83090.363
112726.34
108550.78
134603.87
129936.48
151032.73
146327.98
163418.75
158437.01
173368.69
167552.67
54656.184
53452.721
78261.883
76816.614
100292.96
99280.068
118075.78
118349.83
131081.53
132872.92
140528.62
143368.86
147734.23
150926.25
52852.016
51870.756
72976.246
72313.819
91595.655
91792.153
106587.57
108412.53
117394.34
120953.09
125028.63
129844.2
130647.87
136050.61
53256.599
52247.76
71126.535
70538.852
87266.942
87284.033
100420.47
101665.18
109946.51
112503.42
116636.67
120184.89
121461.95
125553.01
55887.858
54895.062
72769.549
71995.746
86290.621
85652.842
97256.079
97390.626
105234.7
106298.23
110742.56
112551.97
114560.43
116849.06
64355.909
63914.373
82260.658
81162.163
91957.074
90176.157
99424.389
98083.932
105340.18
104688.51
109514.39
109439.04
112309.55
112647.23
94786.262
98056.694
116737.46
114836.79
118620.46
113724.06
118218.78
113737.01
120313.92
116917.46
122877.05
120145.27
124751.08
122454.83
215375.59
234470.65
238576.33
233714.21
220502.61
205433.96
197654.48
182438.15
187680.22
176215.98
185580.25
176819.76
186083.62
178295.16
542805.62
574815.45
641723.84
630900.28
606023.62
570359.59
526192.42
476969.55
489266.6
447910.37
476083.2
442975.65
470434.42
441111.85
1199307.3
1231854.1
1354267.8
1333700.5
1418777.4
1387180.8
1415709.5
1379963.3
1377007.2
1343932.2
1341245.5
1317772.8
1321571.4
1304928.6
5406423.1
5367327.6
5369929.9
5304815.4
5355974.9
5280477.3
5355529.8
5275273.4
5354417
5271400.6
5348657.5
5263974.9
5340951.3
5255138.7
5062969.4
4894578.7
5058187.6
4890140.5
5054902.2
4886641.4
5052653.7
4883601.3
5052244.4
4880811.6
5053530.9
4877360.2
1494306.5
1443695.3
1515758.5
1445522.6
1503082.1
1426276.3
1459762.1
1390592.3
1374013.4
1333151.6
1233848.7
1243559.5
447572.94
418610.71
443445.26
414420.99
430240.16
404766.41
408205.48
389356.63
374335.97
366296.29
330523.98
337823.69
174400.16
170067.9
174857.41
170966.84
174386.31
171152.68
171729.25
170163.32
165546.49
166353.95
158788.96
162519.32
128710.01
131951.45
131530.22
134712.33
133530.25
136889.66
134341.7
138586.02
133464.99
138372.27
133211.25
138917.42
128132.4
133410.68
132227.37
137251.04
135416.24
140343.36
137350.88
142709.72
136702.01
142374.35
136088.87
142165.55
136298.17
141288.95
141253.22
145740.1
145275.68
149454.34
147600.26
151542.7
145514.17
149555.8
142180.22
146243.49
143209.91
146470.33
148194.16
150730.92
152345.17
154300.06
154169.66
155569.38
149222.7
150711.23
141636.35
142927.07
149699.07
150062.78
154871.46
154324.62
159261.99
157637.17
159562.05
157364.07
148648.04
147379.32
134231.97
133325.07
159097.97
154069.14
166292.85
159434.1
172270.45
163765.49
168615.67
160726.67
144494.44
140017.1
117202.97
114968.96
179617.96
168298.34
191130.05
177915.98
199745.52
185157.65
189177.5
174973.49
142377.35
132456.85
90802.8
87921.988
196105.08
199920.98
207545.81
215215.38
213244.25
221868.01
198109.86
196200.07
141118.11
126461.58
66065.762
64493.046
155569.92
198794.6
157955.66
212916.72
152340.27
209143.62
130990.62
174122.27
88737.502
101352.88
43972.948
49698.759
137221.65
190760.08
138357.01
202247.68
130517.25
193938.84
109323.42
158650.02
73676.474
93022.185
42496.53
49401.421
130965.07
186218.98
133196.74
198569.97
127050.47
193898.77
108876.55
164476.46
77232.782
103148.81
47964.98
56968.074
130115.54
183217.58
133165.7
195782.09
128603.33
195190.14
112696.17
172892.44
83331.648
117519.57
53550.049
67384.054
130119.82
180424.34
133585.69
192283.24
130028.63
193668.96
115583.73
175421.62
87745.783
125788.71
57819.307
74741.606
130954.32
178793.35
134582.59
189946.39
131725.44
192311.04
118365.04
176581.52
91608.065
130615.81
61277.419
79578.881
133614.56
175695.14
137562.28
186652.15
136363.49
191253.68
125510.32
179757.86
100684.34
138533.44
68338.193
87466.267
135123.71
172288.55
140672.23
182826.37
142334.34
189415.93
135794.12
183343.32
114720.94
150546.02
81244.14
103253.99
136072.45
164659.82
142558.93
174133.89
146481.78
181037.33
144551.63
179776.75
128422.15
156081.22
95699.649
115466.36
142699.28
159969.47
148707.71
168379.72
152400.58
175126.03
152074.14
176323.88
139624.18
158486.83
107874.49
123238.47
173158.84
163334.03
180601.25
170119.05
185975.77
175585.7
184664.05
177131.7
162158.65
162650.8
117964.54
129731
188780.76
172674.68
197582.53
179926.48
203701.2
185718.19
197007.16
185256.05
159492.44
164428.76
107386.67
129024.66
193844.01
181558.05
204238.77
190130.62
209585.25
196744.58
192266.72
191231.43
141177.87
159333.85
93842.953
124802.68
182957.3
175760.26
192774.36
184304.75
193251.88
189584.59
166504.42
179321.27
121535.37
148920.24
92891.853
126418.8
154292.05
157245.23
161119.05
163762.78
161344.2
167673.96
143878.23
160517.72
117735.28
141154.58
102478.07
129130.77
135508.4
140969.65
140370.23
145842.53
141184.81
148804.69
131541.42
144701.69
116331.23
132907.19
107400.27
125942.11
125373.95
129688.76
128920.52
133628.73
129188.37
135706.46
122915.34
132575.82
114125.97
124942.16
109629.61
121188.72
117381.66
119990.6
119586.42
122764.25
119478.28
123942.67
115934.77
121939.32
111793.31
118116.28
110670.82
117451.46
114155.6
114858.09
115305.46
116596.76
114964.61
117087.22
112959.26
115813.38
110984.49
113992.69
110920.12
114407.5
125779.14
123885.69
126031.55
124690.34
125216.85
124430.96
123486.52
123109.01
121668.51
121469.23
120565.57
120873.21
186808.26
179302.73
186966.89
179946.24
185505.43
179048.55
182323.76
176349.72
178696.78
173158.02
172884.64
168333.02
463395.61
436703.05
451138.14
426844.32
439876.31
417663.59
430705.31
410295.45
420850.18
402326.67
403006.44
387926.27
1311141.2
1296465.3
1302928.6
1289086
1297299.9
1283256.8
1295988.7
1279072.5
1305595.7
1280895.6
1325856.2
1295312
5334229.7
5247133.8
5336283.2
5247216.9
5338187.8
5247207.8
5341071.9
5247613.7
5347746.5
5249866.7
5361641.8
5255555.2
5051213.6
4873261.1
5043855.9
4868004.9
5032983.3
4859271.9
5025015.9
4852212.1
5017847.9
4845154.6
5010187.8
4837876.7
1074958.9
1122276.4
1046370.3
1107704.4
1106569.8
1155950.3
1162711.8
1183620.7
1212867.6
1192863.3
1247978.1
1196243.9
310875.5
318153.45
313559.32
323373.68
340572.06
347297.9
366311.94
365384.95
391354.51
377582.6
420006.19
391756.46
160917.95
167299.13
172075.71
182143.08
180755.91
191730.43
184931.72
194317.33
187837.46
192240.84
193626.72
191702.01
139852.78
148194.51
149125.48
162546.62
149950.87
166343.49
144650.46
160457.62
138009.71
148131.54
134699.16
138107.62
143622.1
151593.94
153337.01
165187.51
151257.49
166005.42
141325.92
155243.02
130472.57
137748.15
124518.31
124632.49
148676.45
152590.65
159256.61
162988
157027.22
161162.41
146528.83
148888.15
135716.71
133110.27
130436.97
121629.8
145183.1
144280.16
154644.09
149768.6
151999.14
145555.86
142054.11
133888.35
133095.13
121407.93
129416.81
113443.38
133621.02
129852.39
141090.3
132100.81
137776.29
126894.42
127474.06
115896.93
118525.66
105165.3
114586.53
98847.68
108642.85
105568.18
110617.69
105194.03
106658.91
100879.58
98692.768
92877.892
91940.719
85133.769
88588.238
80220.332
70705.448
71432.977
66704.764
68838.798
63932.735
66994.828
61234.498
64785.419
59339.411
62925.095
58242.132
61547.735
44634.603
50505.788
41116.92
50665.227
40256.496
51247.026
39688.174
51447.684
39178.702
51480.124
38686.724
51534.373
34598.802
43442.398
33756.246
45150.64
33811.674
46469
33963.957
47530.98
34084.477
48729.063
34159.747
50386.898
36908.317
46074.66
37835.371
49211.093
38828.822
51417.775
39889.406
53467.243
41178.809
56016.946
42556.07
59601.745
42207.786
52884.254
43980.478
57272.448
45639.19
60400.957
47409.456
63231.988
49510.675
66589.758
51277.848
71169.029
45876.267
59040.745
47272.489
63360.851
48916.329
66763.538
50739.535
69762.14
52678.245
73477.615
53404.255
77872.615
48207.015
63624.457
48772.393
67476.358
50110.62
70863.281
51699.701
73832.613
53069.689
77512.145
52769.303
80758.136
49740.596
66544.286
49362.171
69410.627
50329.014
72447.852
51599.129
75293.078
52480.814
78880.128
51515.021
80796.098
52856.966
70458.634
51021.912
72033.557
51489.292
74555.844
52295.274
77195.093
52388.289
80289.971
50379.176
78300.741
60083.014
80190.77
55768.235
80552.432
55398.266
82437.493
55245.347
83659.177
54022.896
81847.987
50476.677
73357.708
70814.136
93290.009
64671.46
95216.34
63694.46
97094.183
62787.453
97196.017
60231.858
92550.327
54360.171
79440.051
79585.878
102848.19
72152.732
106053.65
70912.96
107835.03
69698.713
107306.05
66436.771
101555.98
59068.03
86782.353
85905.316
110173.51
79460.906
114370.72
78136.033
116107.8
75860.131
115010.29
70080.314
107705.85
59781.866
90550.581
81165.015
114213.41
77300.581
120851.79
75525.85
122317.3
71535.917
119220.19
64839.216
108156.17
57431.324
88025.831
78166.636
117709.4
76733.091
126784.72
75316.889
127739.43
72392.877
121731.42
69073.497
107254.97
66734.183
90538.148
86558.952
128977.57
87723.255
144571.34
86853.165
147661.79
84515.963
141382.14
82668.166
125563.57
81996.238
109501.87
100730.53
136652.55
105358.82
157221.38
105101.33
162415.66
101524.84
155279.84
98370.939
137188.18
97039.642
120964.48
106841.23
132456.85
110878.39
148543.53
110460.27
150597.36
107565.76
141682.4
105412.27
128532.05
104619.77
119001.72
109787.99
125908.5
110968.02
134868.98
109664.35
134099.59
107370.35
127425.23
105550.44
119324.73
104307.83
113848.93
112216.42
122335.67
111762.84
128160.65
109429.83
126942.22
106743.43
121882.74
104415.29
115355.95
102498.22
110108.24
112432.84
118418.19
111959.88
122299.72
110053.14
121471.77
107953.35
118238.39
106071.76
113616.96
104572.93
109373.21
119797.87
121722.46
119144.78
123852.55
118711.38
124095.86
118050.89
123011.13
117388.08
120810.21
116997.61
118518.29
163129.49
159926.2
156691.14
155100.33
158514.06
156817.07
160012.37
157815.09
161172.43
158040.99
162548.62
158221.96
365838.63
354458.54
321737.96
311970.23
320111.57
309073.91
322920.75
309426.94
326477.35
310803.87
331178.14
313977.07
1298037
1270738.8
1191745.5
1170603.2
1122432.2
1114464
1101941.3
1094890.7
1092002.7
1084024.2
1087669.5
1078179.2
5388502
5272069.7
5413839.6
5288652.4
5418546.5
5289756.1
5418188.7
5287736.4
5416236.2
5284801.8
5413301.6
5281208.3
5012871.7
4841563.2
5009080.6
4837819.9
5007480.4
4835843.5
5008823.2
4836654.2
5014899.3
4842175.3
5031125
4857927.7
5079542.5
4910404.4
1265270.1
1199324.6
1266221.3
1195883.8
1248415.1
1177878.9
1220656.8
1148778
1192523.2
1116638.3
1176384.1
1096812.9
1176688.5
1097149.7
457283.66
419659.32
490806.35
450560.87
524823.92
483703.55
551797.75
518256.61
565999.74
536279.94
574620.31
551456.67
571460.25
560372.3
204942.24
198214.48
217447.61
208180.25
230298.89
219691.88
243319.99
232864.42
254691.84
246449.65
261557.41
258615.56
256894.66
263524.68
134507.44
134789.71
134233.67
134398.19
133358
133905.95
133762.5
133686.15
135719.99
135295.19
136650.7
137904.86
133089.78
137835.2
121426.8
119720.01
114497.01
116872.14
103345.31
110165.51
95965.247
101142.79
93703.875
96473.829
92706.256
95183.132
90499.508
93610.515
128561.54
117935.06
119313.68
116065.1
98149.466
107333.04
81757.07
91261.185
76311.306
80989.329
74695.918
77689.122
73311.427
75958.743
129519.97
111368.68
122212.13
110844.66
97173.283
103923.58
73982.682
86549.007
65361.922
72536.877
63117.063
67518.58
61725.65
65530.692
114198.94
96865.131
108459.26
96089.061
86825.395
91007.701
64932.96
77581.016
54973.874
64512.21
52021.287
58603.552
49880.862
55947.926
87284.227
77871.013
82648.37
76220.814
68188.688
72619.139
52675.719
64348.002
44592.2
55362.222
41385.294
49917.214
38643.217
46501.445
57295.495
60440.521
54839.437
58770.79
48629.242
55761.068
41169.418
51765.478
36241.504
47078.668
33520.33
43185.343
31235.861
39716.174
38200.713
51259.297
37638.018
50274.998
36472.581
48214.517
34576.215
45712.255
32362.659
43498.38
30562.864
41475.719
29188.99
38859.778
34225.299
52266.482
34345.527
54036.837
34465.82
54975.343
34494.596
52706.41
34339.002
49617.907
33756.297
48052.544
32957.507
45978.193
43596.658
63780.776
44372.751
68796.42
44773.44
72281.454
44469.542
65162.83
43133.947
56842.224
41875.024
52109.164
40673.167
48175.935
51935.783
76779.547
52489.403
80873.703
53182.627
79326.723
53461.766
73069.81
51473.869
64160.068
46735.262
55725.3
42243.266
47310.344
52478.344
77455.124
51907.396
73577.626
52056.332
70684.576
53022.739
69364.583
53916.012
66983.374
51929.442
61155.324
44315.327
49245.477
50844.775
74385.247
49418.568
67674.44
48971.302
64376.896
49809.854
64086.969
51757.64
65245.831
53158.368
64885.282
46563.688
51826.225
49051.337
72251.745
47037.267
64499.037
45911.493
60612.662
46171.196
60320.439
47891.152
62289.137
49836.146
63177.43
46091.223
51878.325
47055.205
67489.728
44467.518
59420.546
42886.125
55373.993
42605.311
54574.341
43678.873
56298.092
45552.05
57830.215
44719.424
51758.455
45667.79
61592.043
42252.912
53836.255
40300.676
49697.075
39599.24
48207.121
40085.226
49087.755
41986.319
51872.14
44077.359
52627.873
46731.37
62968.589
41568.294
51997.919
38808.574
45987.132
37499.071
42980.771
37095.592
41915.37
37858.728
43017.453
40094.859
45418.236
49340.963
66964.276
42885.339
53708.564
39678.618
46545.455
38009.781
42591.885
37021.544
40185.964
36722.698
39102.322
37873.606
39866.669
49786.417
69589.456
45034.032
56746.798
42580.423
49909.813
41036.732
45940.557
39837.231
43038.751
38779.586
40773.644
38942.309
40178.342
53498.011
71242.024
51499.814
62526.882
50077.46
56997.637
48304.505
52846.306
45540.503
49079.919
43239.82
45882.074
41823.812
43802.15
65780.734
82774.951
65436.67
77891.84
63979.461
72788.588
58169.305
64678.454
53151.076
57368.113
50233.409
54272.068
46841.097
50340.449
82366.116
101712.72
82503.695
96350.052
75580.127
87628.108
65609.961
72934.65
61780.39
66099.073
59883.569
64842.366
55618.217
61155.71
96954.496
113030.84
94106.891
107153.8
81879.788
94966.243
73428.283
79734.896
71939.729
75452.436
72451.31
76982.196
70308.267
76807.473
103610.49
114548.69
97470.945
110509.8
86247.073
97841.365
81910.684
86168.447
83037.061
85091.761
87086.865
90163.826
90815.435
97016.829
101779.42
111174.09
96675.251
107297.74
91181.047
97687.287
90362.593
91705.357
93807.792
93786.511
101873.36
102473.03
115329.24
118404.1
100301.98
106758.27
97906.589
103235.16
96275.673
98338.188
97388.387
96653.972
102005.37
100598.71
112150.24
111119.15
131996.82
131934.4
103460
106525.05
102823.71
104525.93
103034.21
103023.44
105132.21
103823.42
110194.99
108935.67
120485.66
120243.91
139561.02
140816.16
117144.49
117369.72
117846.48
117302.35
119572.56
118349.52
122974.84
121649.13
129154.27
128909.02
140302.47
143010.22
155458.27
161896.15
164875.37
159785.3
167707.28
162773.34
172270.4
168085.78
179396.63
176643.14
189897.72
190518.13
205584.69
214312.33
214952.41
234226.06
338526.86
321119.97
346616.71
330303.45
359887.42
346371.2
378619.5
371084.45
402512.87
405748.56
430507.14
456897.91
426748.92
480431.55
1089585.4
1079074.6
1096121.1
1085597.3
1111679
1102638.7
1134579
1127386.6
1166414.2
1157205.3
1217901.4
1211206.6
1270623.2
1285099.5
5425966.6
5293326.8
5435909.5
5303953.7
5451543.4
5320520.3
5481151.8
5351356.7
5541139.6
5413874.2
5666670.4
5543684.4
5920221.8
5804493.1
5132591.4
4979689.6
5217990.1
5086248.8
5356114.7
5257516.9
5556102.4
5481047
1194288.8
1117298.3
1226114.4
1157856.5
1257167.2
1219736.5
1269179.7
1275062.4
542184.69
544319.7
503057.59
531461.64
416940.44
484294.52
361365.08
428412.81
229773.09
245048.21
202850.67
227573.35
170862.57
197062.22
156615.11
179515.87
120890.68
128307.44
111533.23
120756.94
104625.21
111816.62
105426.77
111116.99
85939.71
89324.854
83915.398
87033.162
84356.908
86612.274
85699.273
90157.201
71419.963
73932.827
71183.144
73579.129
71257.671
75089.529
66393.497
76588.795
59794.536
63892.124
58025.325
63256.613
53547.301
62584.566
44510.861
58066.011
46695.676
53371.065
42958.677
51014.579
37222.092
47032.17
31308.154
40008.534
35280.808
42940.329
32035.037
39545.517
28877.958
35281.98
26429.716
30950.823
29207.749
36072.226
27585.127
33012.731
26251.669
30234.093
25375.664
28138.767
28262.101
34909.168
27492.123
31925.654
26860.577
29838.728
26584.668
28669.886
31470.621
40519.26
30098.321
35771.9
29235.476
32330.993
29121.036
31192.129
37464.02
44469.666
34229.877
41523.668
32299.205
37053.388
32256.33
34939.093
39510.843
43993.41
37166.244
42822.552
34416.723
41022.103
34769.811
40226.739
39327.363
43534.308
36606.48
41940.619
34539.09
41504.537
36312.447
42817.509
39701.57
43980.559
35769.932
40650.148
34333.829
40342.503
37789.883
43631.733
38965.903
43192.636
35608.263
39715.667
35356.569
39819.033
40632.135
44872.995
39216.408
43134.003
36893.764
40032.737
37821.637
40801.475
42401.308
45611.06
41543.717
45665.771
39784.665
42229.025
40310.768
42397.406
43481.062
45950.66
42250.17
46416.74
42326.657
44510.896
43142.682
44522.141
45834.15
47527.542
41334.245
43620.271
43731.587
45260.119
46001.604
46730.047
49170.862
50136.381
41483.262
42548.398
44775.656
45923.063
48449.038
49181.811
52201.091
53159.876
42401.096
43593.88
45192.542
46450.365
49231.384
50503.861
53095.202
54491.838
44575.585
46194.061
45665.772
46905.412
48915.897
50327.536
52342.067
53788.109
50053.719
52332.431
48150.62
49152.386
49321.741
50444.636
51591.138
52810.201
61562.199
65127.695
55192.644
55658.416
52612.825
52884.882
52629.522
53220.683
83951.135
90717.393
71534.294
71641.733
62177.8
60533.222
57927.389
56858.898
121913.43
129304.3
107093.75
108429.77
86341.741
80795.063
72226.13
67058.388
157981.47
159922.09
159479.77
160925.06
135220.88
125705.35
105369.36
91024.694
170424.91
172177.13
192166.69
194305.63
192560.08
187153.14
166330.45
146917.18
178479.57
186094.06
199343.32
206900.58
218667.76
226899.08
219368.69
219725.02
222567.37
241552.12
226366.75
240725.66
240507.79
257154.26
248712.71
269847.03
407108.28
443737.08
368259.82
396997.07
350542.4
369640.37
339773.1
370499.01
1238194.7
1285945
1085256.3
1142746.1
981730.01
1000132.5
887882.43
908084.57
6021686.5
5925657.8
5888017.6
5824819.2
5725267.4
5700609.2
5554598.3
5559273.2
5152763.2
5208118.2
5091906.9
5135760.8
5023809.9
5038932.7
1109964.6
1077414
981741.98
993831.35
903709.51
861956.53
442075.33
438465.31
403520.48
388537.56
301841.64
284466.44
193549.95
191131.66
176453.28
161571.88
129795.58
122869.9
83147.954
83774.59
80043.744
76063.583
90642.338
90623.884
49582.232
50326.406
49855.247
49209.412
86182.34
85443.622
40283.498
40176.454
39570.273
39190.23
76658.866
69119.725
36572.501
35924.088
33696.388
33174.873
53354.333
45139.756
34021.466
33060.626
29627.556
28719.04
34664.97
31021.541
31459.143
30527.641
26557.838
24847.058
25990.797
24976.337
28776.319
28111.158
23026.56
21547.94
21877.526
21970.266
25927.173
25375.557
20807.331
20075.022
19970.058
20487.794
23487.62
22826.382
20682.858
20151.128
19794.874
20113.034
22295.908
21380.436
22486.815
21501.644
20725.11
19909.738
22556.119
21244.401
24640.977
23044.772
22479.218
20564.281
23981.048
22127.596
26631.339
24838.697
23582.783
21573.471
25824.776
23542.254
29726.074
28138.538
25380.709
23748.46
27883.158
25593.396
32476.597
31375.17
28145.099
27272.436
30326.696
28410.056
35266.609
34763.04
32594.85
33933.884
33402.512
31633.397
38867.793
38959.622
42842.043
46156.836
36924.911
34404.707
43850.354
43427.979
45232.468
43730.321
36467.186
31074.934
49759.998
47906.81
45484.063
48890.141
30699.946
26314.696
50418.527
39650.856
56336.686
56586.464
26878.511
23538.635
41110.735
30580.468
64602.418
55169.483
24543.143
22280.435
34105.753
27010.476
66623.528
51497.185
24204.356
22446.435
35296.209
28197.576
66095.212
51234.849
27460.672
25470.736
47399.862
35927.402
66606.786
55554.581
38739.025
35356.883
72614.056
56052.266
68557.029
62649.464
60669.332
57707.727
103791.44
88451.724
71776.529
70684.092
81169.941
85393.891
119621.75
121944.6
82807.976
81478.862
92809.178
104610.47
123599.58
139552.19
111105.86
103077.12
107127.21
116944.8
135061.75
145186.8
181537.62
154405.64
156353.29
151952.38
187215.68
166533.31
305530.82
265404.01
343607.91
310128.58
350779.59
294655.64
443373.4
450999.49
971920.94
970490.01
1011322.5
949717.35
982614.86
945540.34
5303284.7
5305677.6
5240581
5258483.2
5199877.5
5187377.6
5118546.4
5148019.2
5177006.8
5200861
5223589
5245975.7
5114402.9
5142789.4
5174312.5
5196347.4
5214938.7
5231580.3
739205.77
797808.3
939412.7
1070670.1
1160822.7
1219496.4
755298.62
953694.45
1193229.5
1309040
1345986.7
1352197.5
185772.89
221321.59
323105.54
420819.99
485473.22
519070.26
207769.6
340750.37
479706.82
553349.35
589289.76
598068.77
68839.998
86437.964
121021.16
158901.83
192327.12
218430.09
85367.095
131325.81
166174.25
202572.27
214570.4
227554.99
35487.225
48999.693
61204.487
71487.89
81027.602
88280.53
48728.671
69147.791
75343.286
83244.798
87636.294
91592.27
23188.696
36673.218
44159.067
47962.193
50507.467
52045.886
35818.549
51581.752
54160.656
55402.584
56255.959
57073.379
17776.326
31462.812
38006.882
40708.953
42122.129
42780.139
30515.941
45568.573
48022.454
48692.603
48859.69
49142.722
15262.843
28525.235
34976.503
37693.358
39025.806
39685.875
28053.673
42498.009
45496.691
46482.285
46839.946
47204.384
14203.838
26375.878
32966.411
35978.605
37406.719
38117.047
26535.97
40428.808
44369.794
45882.715
46463.455
46872.371
13974.306
24476.094
31152.977
34516.412
36107.475
36843.765
25082.697
38825.021
43849.16
45936.26
46677.493
46927.323
14304.72
22493.508
28859.104
32357.963
34070.39
34802.366
23462.787
36550.088
42131.166
44661.205
45601.018
45696.15
15037.868
20510.364
25834.405
29090.164
30698.491
31386.792
21807.346
32817.195
37506.864
39507.714
40353.406
40577.354
16017.3
18907.929
23033.313
26001.487
27503.94
28121.638
20261.326
29464.42
33807.916
35274.453
35507.739
35301.162
17251.279
17484.359
20303.845
23075.449
24760.553
25556.319
19016.005
26357.932
30591.129
31985.919
32114.594
31786.052
18745.744
16613.939
17968.011
20495.557
22434.068
23550.152
18900.996
24074.125
27960.863
29408.705
29613.982
29309.876
20029.957
16236.947
16207.935
18417.884
20640.566
22167.032
19642.216
22343.275
25736.388
27430.327
27874.347
27724.536
21287.077
16583.912
15365.992
17206.489
19601.495
21511.787
20777.971
21258.986
24284.48
26176.349
26870.97
26956.679
22599.094
17259.372
15214.306
16688.935
19148.404
21317.31
21939.831
20889.315
23541.716
25516.303
26407.937
26721.683
23984.052
18267.565
15719.092
16760.461
19232.934
21566.139
23363.558
21244.201
23455.73
25503.196
26558.513
27061.257
25722.696
19676.657
16750.361
17387.78
19780.712
22245.564
25092.598
22356.923
24124.678
26182.47
27359.668
27999.589
27932.93
21498.851
18055.661
18127.304
20352.521
22794.39
27089.413
23780.127
25166.063
27272.994
28677.112
29548.963
30045.594
23498.519
19656.917
19222.304
21154.259
23402.049
29134.014
25528.341
26752.52
28962.278
30746.29
32100.552
31857.72
25357.343
21397.679
20392.151
22047.645
24130.39
31067.566
27310.306
28286.374
30811.851
33289.37
35411.698
33972.068
27212.312
23091.183
21269.559
22709.248
24827.972
32769.482
28895.444
29503.642
32400.61
35596.678
38283.732
36442.078
29430.475
24748.994
21968.13
23084.392
25225.594
33813.862
29937.638
30152.722
33249.826
36742.255
39527.579
39052.509
31877.042
26343.875
22926.657
23592.596
25755.025
33909.465
30114.737
29962.443
33093.359
36546.825
39250.117
41314.566
34366.361
28140.213
24785.69
25308.945
27444.786
33433.596
29859.716
29311.624
32250.466
35676.912
38360.01
42608.123
36884.489
30723.267
28470.171
29771.801
32085.935
33172.056
29971.803
29263.207
31831.901
35284.809
38101.942
43605.623
39956.334
35131.758
35054.792
38610.132
41797.829
33989.119
31352.387
30600.026
32595.514
35674.585
38456.897
46132.002
45136.667
42885.617
45989.943
52766.872
56609.08
36890.101
35172.218
34469.586
35646.33
37923.781
40418.437
52760.793
54834.17
55470.584
61570.017
69284.234
70929.743
43439.682
43304.86
42949.4
43163.29
44698.403
47102.786
68281.723
73793.094
75946.123
81618.812
87062.342
88119.333
57293.341
59853.938
60541.061
60344.929
62157.595
66153.715
106638.1
117576.13
119584.47
121187.16
126615.35
133739.59
90404.525
97231.601
101840.97
104984.98
112159.87
127575.79
226650.62
252905.09
257843.12
262979.58
279006.04
308801.63
200197.91
213662.73
230049.08
251930.86
282944.79
333975.61
772300.3
823449.37
837308.81
857229.44
889504.44
923318.6
750010.27
775408.76
812262.08
852310.13
900897.51
963333.19
5124580
5165159.9