/*--------------------------------*- C++ -*----------------------------------*\
| =========                 |                                                 |
| \\      /  F ield         | OpenFOAM: The Open Source CFD Toolbox           |
|  \\    /   O peration     | Version:  2206                                  |
|   \\  /    A nd           | Website:  www.openfoam.com                      |
|    \\/     M anipulation  |                                                 |
\*---------------------------------------------------------------------------*/
FoamFile
{
    version     2.0;
    format      ascii;
    arch        "LSB;label=32;scalar=64";
    class       volScalarField;
    location    "100";
    object      p;
}
// * * * * * * * * * * * * * * * * * * * * * * * * * * * * * * * * * * * * * //

dimensions      [1 -1 -2 0 0 0 0];

internalField   nonuniform List<scalar> 
50904
(
99437.526
99305.676
99265.125
99146.533
99441.802
99310.968
99268.757
99149.916
99445.605
99315.876
99271.943
99153.43
99451.162
99323.08
99277.067
99158.958
99458.009
99332.499
99283.531
99166.594
99466.758
99345.014
99292.371
99177.502
99477.497
99361.096
99303.909
99192.374
99490.404
99381.356
99318.571
99212.103
99506.32
99406.881
99337.408
99237.744
99525.07
99436.733
99360.97
99269.381
99546.285
99470.632
99389.916
99307.289
99569.305
99509.066
99426.564
99354.736
99593.21
99549.133
99463.887
99407.864
99620.148
99589.624
99503.818
99462.275
99649.108
99631.827
99545.363
99516.792
99678.608
99673.407
99580.769
99562.756
99711.758
99718.504
99609.49
99600.13
99746.882
99762.758
99633.169
99631.075
99776.406
99796.016
99650.835
99652.348
99796.731
99818.588
99658.767
99661.562
99804.211
99826.644
99660.616
99661.02
99798.368
99821.787
99661.088
99657.391
99789.35
99815.603
99663.615
99655.832
99779.886
99806.884
99664.814
99653.391
99772.023
99800.082
99666.418
99651.765
99766.07
99794.985
99668.35
99650.938
99761.412
99790.977
99670.631
99650.647
99757.804
99787.873
99672.94
99650.902
99754.96
99785.507
99675.088
99651.561
99752.664
99783.605
99676.908
99652.494
99750.774
99781.96
99678.405
99653.455
99749.206
99780.575
99679.582
99654.438
99747.962
99779.482
99680.504
99655.508
99746.95
99778.678
99681.201
99656.493
99746.146
99778.139
99681.73
99657.324
99745.36
99777.651
99682.269
99658.226
99199.577
99112.444
99184.184
99158.101
99179.852
99190.786
99171.031
99204.917
99161.254
99209.413
99153.559
99210.149
99148.313
99209.763
99200.949
99112.833
99184.85
99157.211
99180.992
99189.854
99173.422
99205.008
99164.766
99210.443
99156.954
99211.234
99150.821
99210.432
99202.479
99114.608
99185.595
99158.333
99181.494
99190.476
99174.767
99206.375
99167.807
99213.049
99161.087
99214.842
99155.076
99214.616
99205.391
99118.606
99187.251
99160.424
99183.348
99191.918
99177.735
99208.458
99171.954
99215.546
99165.674
99217.867
99159.291
99217.833
99209.031
99124.071
99188.939
99162.78
99185.108
99192.84
99180.448
99210.703
99175.305
99218.768
99168.826
99221.587
99161.574
99221.423
99213.849
99131.741
99191.71
99166.141
99187.898
99194.321
99183.566
99212.405
99178.434
99220.537
99171.475
99223.037
99163.247
99222.377
99220.079
99141.929
99195.035
99170.444
99190.856
99196.065
99186.388
99213.638
99180.862
99221.295
99173.117
99223.104
99163.77
99221.501
99228.421
99155.292
99199.479
99176.038
99194.148
99197.85
99188.818
99213.461
99182.383
99219.684
99173.493
99220.291
99162.682
99217.452
99239.513
99172.258
99204.866
99182.337
99197.381
99198.968
99190.461
99211.587
99182.583
99216.088
99172.196
99215.334
99159.629
99211.264
99253.544
99193.894
99211.106
99190.666
99200.408
99200.614
99191.971
99208.766
99182.683
99210.92
99170.83
99208.666
99156.268
99203.456
99271.049
99220.756
99219.54
99201.086
99204.095
99203.202
99193.159
99206.286
99182.399
99205.616
99169.427
99202.112
99154.158
99196.242
99293.285
99253.099
99229.611
99217.064
99209.908
99210.696
99197.185
99208.643
99186.234
99206.06
99174.097
99202.276
99160.075
99197.185
99321.392
99291.642
99240.653
99238.984
99213.187
99226.003
99196.485
99218.155
99183.583
99212.367
99170.881
99206.599
99156.9
99200.381
99354.612
99335.7
99256.197
99265.96
99218.764
99243.656
99196.008
99230.129
99179.381
99220.311
99164.017
99211.228
99147.735
99202.133
99394.327
99383.674
99279.006
99298.091
99229.595
99263.36
99199.516
99242.331
99178.195
99227.225
99159.039
99214.51
99138.857
99201.74
99434.988
99426.859
99306.406
99327.87
99246.257
99282.804
99209.812
99256.63
99184.429
99237.987
99162.074
99221.196
99138.076
99203.278
99475.368
99465.033
99337.78
99358.557
99269.815
99304.433
99228.587
99272.096
99200.083
99249.217
99175.163
99228.351
99147.634
99205.384
99513.167
99500.965
99373.768
99393.689
99303.032
99337.315
99260.095
99303.835
99230.593
99280.168
99204.833
99258.199
99175.778
99233.126
99544.453
99531.269
99410.336
99427.869
99343.131
99375.559
99302.126
99345.012
99273.863
99323.143
99249.072
99302.292
99220.894
99277.918
99568.578
99554.665
99445.816
99459.546
99387.406
99415.122
99351.509
99389.483
99326.547
99370.6
99304.514
99351.995
99279.563
99329.891
99589.244
99574.094
99481.886
99491.176
99433.323
99455.676
99403.865
99435.732
99383.431
99420.799
99365.498
99405.618
99345.578
99387.192
99604.968
99588.124
99512.239
99519.755
99473.242
99493.031
99450.551
99477.96
99435.519
99467.643
99423.158
99457.937
99410.312
99446.649
99617.529
99598.377
99535.419
99538.882
99501.94
99520.886
99483.314
99512.375
99471.873
99507.023
99463.655
99502.061
99456.346
99496.256
99626.415
99604.288
99550.599
99549.507
99520.022
99533.445
99503.574
99526.398
99493.95
99522.212
99488.017
99518.428
99483.833
99514.083
99633.445
99607.431
99562.022
99555.031
99533.887
99538.914
99518.928
99531.305
99510.409
99526.942
99505.644
99522.997
99503.009
99518.368
99638.878
99608.899
99571.175
99557.172
99544.037
99541.29
99529.529
99532.801
99521.678
99527.76
99517.843
99523.632
99516.552
99519.449
99643.297
99609.553
99579.921
99557.488
99552.916
99542.517
99539.456
99534.882
99532.627
99530.506
99530.03
99527.652
99530.353
99525.377
99646.843
99609.856
99587.504
99557.17
99560.224
99542.684
99547.622
99535.772
99541.642
99532.257
99540.237
99530.709
99542.289
99530.321
99649.635
99609.973
99593.048
99556.996
99566.01
99542.853
99554.328
99536.513
99549.023
99533.645
99548.466
99533.038
99551.7
99534.021
99651.968
99610.156
99597.083
99557.369
99570.687
99542.984
99560.017
99537.378
99555.271
99535.074
99555.23
99535.197
99559.007
99537.117
99653.864
99610.414
99600.014
99558.276
99574.294
99543.347
99564.519
99538.365
99560.136
99536.369
99560.199
99536.73
99563.934
99538.994
99655.368
99610.613
99602.119
99559.497
99576.99
99544.28
99568.334
99539.839
99564.602
99538.263
99564.685
99538.704
99567.986
99540.862
99656.594
99610.806
99603.747
99560.864
99578.961
99545.341
99571.219
99541.277
99568.056
99540.038
99568.151
99540.501
99571.108
99542.647
99657.594
99611.26
99605.067
99561.969
99580.563
99546.539
99573.768
99543.001
99571.68
99542.335
99572.171
99543.085
99574.355
99544.707
99658.33
99611.876
99605.992
99562.705
99581.499
99547.249
99575.088
99544.043
99573.733
99543.779
99574.641
99544.7
99576.255
99545.808
99659.182
99612.804
99607.084
99563.654
99582.558
99548.086
99576.27
99545.006
99575.26
99545.001
99576.495
99546.116
99578.233
99547.348
99144.282
99209.426
99140.808
99208.459
99138.081
99207.566
99135.721
99207.94
99133.874
99211.859
99136.308
99228.349
99146.299
99210.056
99141.738
99207.886
99137.452
99204.808
99134.518
99203.891
99132.751
99208.106
99135.479
99225.841
99150.139
99214.534
99144.137
99212.035
99137.981
99208.036
99133.486
99205.967
99131.353
99209.183
99134.054
99225.872
99153.5
99217.728
99146.195
99214.721
99137.97
99209.511
99131.585
99206.231
99128.91
99209.135
99131.789
99225.301
99154.655
99220.766
99145.94
99216.837
99136.342
99210.51
99129.038
99206.587
99125.766
99208.998
99128.762
99224.124
99155.114
99221.133
99144.88
99216.319
99133.901
99208.986
99125.886
99204.627
99122.318
99206.932
99125.099
99220.834
99154.327
99219.248
99142.541
99213.288
99130.215
99204.94
99121.446
99199.973
99117.512
99201.779
99119.825
99213.852
99151.583
99213.824
99137.968
99206.443
99124.325
99197.357
99114.874
99191.978
99110.44
99192.936
99112.111
99202.442
99146.585
99206.269
99130.939
99197.733
99116.308
99188.092
99106.449
99182.219
99101.275
99181.931
99101.833
99187.822
99141.265
99197.377
99124.229
99188.15
99108.705
99178.4
99098.248
99172.605
99092.138
99171.225
99090.226
99172.161
99138.35
99189.672
99120.501
99181.445
99104.425
99173.677
99093.146
99168.89
99085.738
99165.893
99080.908
99160.92
99145.369
99192.045
99128.227
99186.87
99111.899
99182.873
99100.295
99180.544
99092.925
99176.372
99084.455
99166.864
99142.984
99194.666
99128.872
99189.908
99116.479
99185.901
99107.212
99182.24
99100.429
99176.34
99091.01
99167.534
99131.952
99194.311
99117.183
99186.869
99104.796
99180.189
99095.023
99174.635
99087.445
99167.842
99078.567
99159.815
99119.272
99190.108
99100.785
99178.924
99085.039
99167.732
99072.496
99157.31
99062.836
99149.119
99053.28
99143.274
99114.143
99185.422
99091.298
99166.968
99071.698
99149.005
99055.901
99133.061
99043.539
99120.728
99032.102
99113.334
99119.496
99181.833
99092.441
99156.548
99069.154
99131.653
99050.169
99110.473
99034.989
99093.56
99021.295
99082.039
99145.738
99206.877
99116.687
99178.237
99091.577
99149.884
99070.919
99125.732
99054.088
99106.166
99039.048
99092.552
99191.152
99251.84
99161.627
99222.954
99135.776
99194.254
99114.656
99169.988
99097.41
99150.234
99082.762
99136.371
99252.754
99305.855
99224.537
99278.47
99198.998
99250.969
99178.357
99228.02
99161.326
99209.548
99147.612
99196.405
99323.836
99367.181
99299.438
99344.797
99276.526
99322.278
99258.191
99302.906
99242.852
99286.891
99230.346
99274.485
99396.963
99435.147
99382.029
99422.765
99367.168
99410.523
99354.29
99399.469
99343.233
99389.083
99333.362
99379.281
99449.33
99490.721
99442.557
99485.633
99436.183
99480.039
99429.539
99474.162
99421.508
99467.101
99411.501
99458.91
99480.333
99510.078
99477.855
99507.345
99476.32
99503.184
99473.647
99498.144
99467.362
99491.682
99456.035
99483.929
99501.277
99513.891
99500.368
99510.365
99500.016
99506.316
99498.806
99501.274
99494.465
99494.546
99484.658
99487.298
99516.329
99515.531
99516.55
99511.917
99516.545
99508.544
99515.85
99505.108
99513.318
99500.89
99506.305
99495.545
99531.672
99523.437
99532.901
99521.553
99533.549
99519.542
99533.525
99517.679
99532.174
99515.817
99526.797
99512.064
99545.451
99530.379
99548.44
99530.588
99550.474
99530.436
99551.255
99529.978
99550.003
99528.887
99544.54
99525.494
99556.137
99535.562
99560.587
99537.493
99563.96
99538.924
99565.649
99539.497
99564.186
99538.632
99558.438
99535.076
99563.937
99539.603
99569.184
99542.736
99573.436
99545.361
99575.634
99546.683
99574.057
99545.948
99568.349
99542.038
99568.69
99541.776
99574.098
99545.479
99578.781
99548.825
99581.246
99550.617
99580.068
99549.934
99574.766
99546.052
99572.001
99543.366
99576.931
99546.948
99581.667
99550.505
99584.311
99552.616
99583.331
99551.925
99578.657
99547.981
99574.257
99544.684
99577.751
99547.307
99581.67
99550.378
99584.411
99552.652
99584.197
99552.442
99580.825
99549.155
99576.644
99546.172
99579.639
99548.477
99582.708
99550.894
99584.744
99552.653
99584.906
99552.932
99582.646
99550.529
99577.865
99546.758
99579.996
99548.337
99582.117
99549.905
99583.87
99551.437
99584.797
99552.516
99583.744
99551.273
99579.789
99548.281
99581.715
99549.751
99583.419
99551.038
99584.915
99552.224
99585.968
99553.287
99585.296
99552.446
99142.627
99248.62
99134.979
99248.814
99128.454
99244.433
99124.614
99241.095
99121.748
99238.259
99119.228
99235.726
99142.662
99247.524
99136.972
99250.081
99130.858
99246.404
99125.729
99242.029
99121.594
99238.089
99118.813
99235.341
99141.506
99247.325
99138.38
99252.366
99133.823
99250.047
99128.603
99245.537
99123.728
99241.285
99120.144
99238.275
99139.745
99246.208
99138.95
99252.349
99135.341
99250.907
99130.361
99247.228
99125.495
99243.606
99121.858
99241.134
99136.848
99243.567
99137.879
99249.853
99135.013
99248.94
99130.611
99246.241
99126.162
99243.707
99122.704
99242.305
99132.974
99237.427
99134.994
99242.891
99132.4
99242.589
99127.992
99240.973
99123.37
99239.501
99119.834
99239.155
99126.939
99227.114
99128.799
99231.683
99126.124
99231.918
99121.437
99231.21
99116.146
99230.619
99111.776
99231.174
99117.88
99212.68
99118.354
99216.03
99114.964
99216.155
99109.364
99215.693
99102.529
99215.351
99096.064
99215.999
99105.565
99194.843
99103.879
99196.318
99099.097
99195.523
99091.882
99194.39
99082.912
99192.847
99073.637
99191.346
99090.351
99174.856
99086.257
99174.763
99079.917
99172.762
99071.247
99170.045
99060.392
99166.483
99048.524
99163.141
99075.957
99157.972
99068.135
99156.279
99059.503
99152.624
99048.172
99146.884
99034.432
99140.333
99021.295
99134.264
99072.879
99161.435
99062.271
99158.774
99051.275
99150.775
99037.185
99139.906
99021.504
99128.631
99006.738
99118.959
99077.791
99165.318
99066.252
99162.74
99053.012
99152.329
99036.218
99135.103
99018.59
99116.62
99001.774
99102.606
99067.351
99158.51
99053.861
99155.244
99035.789
99144.126
99012.223
99125.011
98989.663
99103.293
98971.596
99085.528
99042.908
99137.801
99029.046
99133.355
99010.002
99121.867
98986.097
99102.194
98964.966
99079.699
98948.707
99061.925
99020.902
99106.852
99006.558
99101.452
98987.869
99087.816
98965.851
99065.557
98947.26
99044.597
98932.968
99032.252
99008.292
99074.554
98991.294
99066.807
98969.485
99048.961
98945.235
99020.512
98925.209
98995.396
98909.333
98981.828
99024.861
99084.527
99005.532
99074.79
98980.683
99053.165
98954.091
99019.521
98932.495
98990.851
98914.988
98975.144
99069.732
99128.448
99050.13
99117.418
99026.261
99094.768
99001.63
99061.944
98982.007
99036.551
98965.85
99021.742
99136.151
99188.533
99119.513
99176.404
99102.164
99156.475
99083.202
99133.065
99066.865
99114.832
99053.278
99101.571
99220.318
99264.895
99206.429
99252.352
99193.76
99234.574
99179.511
99213.321
99167.207
99196.596
99157.319
99184.758
99323.523
99368.561
99314.188
99359.975
99307.819
99347.852
99301.078
99332.773
99294.986
99320.85
99289.817
99312.572
99399.872
99447.85
99394.365
99442.201
99394.372
99436.621
99394.993
99430.363
99394.71
99425.445
99393.251
99421.444
99441.63
99472.803
99438.651
99467.733
99442.296
99466.869
99446.074
99467.372
99447.929
99467.51
99448.11
99465.766
99471.169
99476.345
99469.592
99470.727
99474.418
99471.669
99480.399
99474.048
99486.014
99474.913
99490.878
99471.626
99494.959
99484.642
99494.921
99480.312
99501.434
99483.022
99510.703
99487.384
99522.372
99490.283
99535.724
99491.101
99516.524
99501.782
99517.427
99499.479
99524.93
99503.673
99535.708
99509.805
99549.817
99515.568
99565.76
99521.813
99535.471
99518.075
99537.338
99519.566
99545.368
99524.025
99557.476
99530.088
99572.752
99537.909
99587.769
99547.734
99550.381
99528.745
99552.624
99531.178
99560.433
99536.067
99572.098
99543.01
99585.626
99551.4
99598.122
99560.4
99561.162
99536.05
99562.003
99538.03
99568.353
99542.46
99578.088
99548.399
99589.149
99555.17
99599.441
99562.077
99568.899
99540.893
99568.816
99541.392
99573.778
99545.315
99581.63
99550.63
99590.389
99555.981
99598.707
99560.96
99574.763
99544.388
99575.771
99544.805
99580.1
99547.713
99586.887
99552.086
99594.272
99556.635
99601.145
99560.717
99579.44
99547.11
99582.716
99549.051
99586.605
99551.4
99591.983
99555.046
99597.654
99559.125
99602.71
99562.523
99583.239
99549.605
99589.989
99554.347
99594.494
99556.959
99598.899
99559.778
99603.011
99562.415
99606.457
99564.414
99585.321
99551.209
99594.575
99557.574
99599.398
99560.233
99602.842
99562.214
99605.665
99563.867
99608.13
99565.217
99587.258
99552.745
99597.561
99559.738
99602.917
99562.71
99606.242
99564.634
99608.8
99566.155
99611.01
99567.366
99116.982
99233.329
99114.936
99230.925
99113.139
99228.833
99111.333
99226.564
99109.441
99223.324
99106.614
99216.202
99096.249
99190.041
99116.583
99232.972
99114.434
99230.383
99112.715
99228.308
99111.043
99226.26
99109.242
99223.304
99106.456
99216.438
99096.177
99190.5
99117.325
99235.65
99114.414
99232.612
99112.17
99230.063
99110.457
99227.715
99108.882
99224.75
99106.287
99217.927
99096.147
99191.831
99119.022
99238.914
99116.108
99236.24
99113.592
99234.033
99111.212
99231.875
99108.968
99228.78
99106.068
99221.624
99095.858
99194.756
99119.776
99241.022
99116.672
99238.975
99114.153
99237.326
99111.737
99236.058
99108.923
99233.613
99105.413
99226.416
99094.991
99198.566
99116.851
99238.709
99113.885
99237.287
99111.576
99236.569
99109.328
99236.834
99106.796
99236.21
99103.386
99230.231
99093.086
99201.891
99107.941
99231.128
99104.797
99229.681
99103.072
99229.744
99101.625
99231.786
99100.129
99233.434
99098.089
99230.358
99088.814
99202.867
99090.402
99215.378
99086.661
99213.303
99085.38
99214.028
99085.234
99218.007
99085.645
99222.369
99086.62
99223.327
99080.036
99198.677
99065.781
99189.213
99060.851
99186.672
99059.14
99187.778
99059.642
99192.698
99062.469
99200.024
99067.459
99205.961
99065.95
99186.366
99038.748
99159.029
99032.481
99155.548
99029.496
99156.407
99029.318
99160.67
99033.499
99168.651
99042.068
99178.015
99048.63
99165.867
99011.038
99127.839
99003.238
99122.681
98998.451
99122.028
98997.055
99125.068
99001.497
99131.865
99013.87
99142.789
99030.843
99140.726
98993.116
99110.833
98981.305
99104.137
98972.221
99100.998
98967.425
99100.294
98972.016
99102.333
98987.512
99110.152
99013.806
99115.668
98984.167
99092.072
98965.91
99083.013
98953.216
99077.607
98945.793
99076.512
98946.266
99078.013
98963.179
99081.501
98995.626
99088.472
98955.536
99071.023
98940.395
99058.21
98930.901
99053.37
98928.288
99055.419
98932.391
99056.27
98946.258
99054.199
98974.877
99059.36
98933.841
99049.123
98919.398
99041.112
98908.981
99040.516
98904.481
99044.077
98912.272
99043.705
98932.674
99038.877
98952.567
99037.718
98919.509
99025.091
98904.967
99019.631
98892.695
99018.149
98886.108
99019.8
98894.603
99020.247
98922.856
99021.374
98938.016
99018.353
98893.874
98973.289
98876.574
98964.573
98860.575
98959.315
98849.194
98956.854
98852.375
98955.296
98881.471
98964.419
98900.307
98965.682
98897.544
98964.002
98878.155
98951.655
98859.131
98941.36
98843.093
98932.248
98838.55
98921.377
98856.507
98918.346
98877.174
98909.286
98949.411
99009.569
98930.029
98994.502
98910.065
98979.995
98891.188
98964.769
98880.275
98945.987
98887.27
98929.39
98914.189
98925.527
99039.465
99089.239
99022.412
99073.724
99003.491
99057.39
98985.001
99039.004
98971.28
99016.265
98969.063
98992.977
99000.005
98997.428
99147.418
99174.079
99134.524
99160.487
99118.794
99145.13
99102.773
99126.947
99087.933
99101.807
99073.24
99065.379
99086.457
99049.201
99284.025
99304.647
99276.952
99295.724
99265.019
99282.319
99253.21
99263.842
99239.83
99234.621
99218.256
99184.035
99201.029
99128.132
99391.043
99417.122
99386.99
99409.742
99380.244
99397.028
99376.751
99380.963
99366.615
99353.154
99342.421
99303.514
99313.555
99236.402
99449.495
99461.855
99453.393
99454.742
99460.661
99447.805
99462.771
99441.154
99450.609
99420.993
99425.266
99381.093
99391.125
99321.665
99501.622
99468.776
99516.542
99472.896
99523.95
99477.664
99520.49
99471.916
99509.802
99458.232
99482.752
99434.188
99441.8
99377.94
99550.257
99496.077
99561.819
99504.415
99565.905
99508.862
99563.835
99506.452
99555.638
99501.072
99523.602
99475.847
99476.39
99412.912
99580.078
99531.372
99590.658
99540.392
99594.129
99543.386
99592.935
99541.28
99583.288
99533.129
99548.849
99502.034
99500.138
99434.932
99600.095
99558.051
99608.812
99565.612
99610.861
99566.008
99608.078
99561.269
99596.48
99549.039
99563.067
99515.924
99518.319
99451.198
99608.923
99569.218
99616.337
99575.127
99617.193
99573.76
99613.492
99567.271
99601.746
99555.344
99570.88
99522.604
99534.254
99463.958
99609.09
99569.203
99616.218
99574.307
99617.387
99572.78
99614.688
99567.14
99604.199
99557.879
99576.195
99525.961
99547.454
99472.929
99607.258
99566.594
99614.384
99571.077
99616.461
99570.825
99614.89
99567.323
99605.73
99558.708
99580.181
99527.774
99557.735
99479.052
99608.359
99565.307
99614.163
99569.338
99615.859
99570.161
99614.893
99567.45
99606.938
99558.656
99583.161
99528.546
99565.55
99483.278
99607.977
99565.808
99612.751
99568.61
99615.105
99569.445
99615.319
99567.269
99608.293
99558.44
99585.644
99528.837
99571.899
99486.15
99610.252
99566.722
99613.727
99568.791
99615.955
99569.588
99616.582
99567.724
99609.815
99558.8
99587.692
99529.304
99576.966
99488.482
99610.883
99566.866
99613.906
99568.678
99616.645
99569.862
99617.682
99568.349
99610.991
99559.388
99589.098
99529.711
99580.438
99490.227
99613.569
99568.902
99616.218
99570.437
99618.749
99571.459
99619.589
99569.797
99612.643
99560.491
99590.793
99530.413
99584.384
99492.529
99074.246
99148.745
99037.545
99094.631
98982.327
99037.115
98867.515
98943.928
99074.206
99149.177
99037.55
99094.944
98982.696
99037.609
98867.918
98944.166
99074.191
99150.221
99037.501
99095.642
98982.861
99038.17
98868.026
98944.215
99073.899
99152.115
99037.337
99096.773
98983.108
99039.088
98867.825
98944.38
99073.109
99154.401
99036.989
99098.092
98983.222
99040.245
98867.203
98944.533
99071.529
99156.391
99036.209
99099.136
98983.066
99041.549
98866.012
98944.449
99068.147
99156.392
99034.255
99098.786
98982.165
99042.161
98864.103
98943.698
99061.482
99152.318
99030.381
99095.494
98980.897
99041.469
98862.092
98942.818
99052.026
99142.45
99026.264
99089.451
98980.846
99041.291
98860.283
98943.585
99042.49
99128.702
99023.867
99083.867
98982.92
99043.923
98857.459
98946.964
99034.329
99114.864
99022.847
99080.686
98984.802
99049.259
98850.447
98950.521
99025.842
99101.744
99019.793
99078.132
98982.382
99054.033
98836.724
98950.041
99012.409
99085.599
99009.032
99071.789
98971.328
99053.523
98811.153
98941.618
98989.896
99063.365
98985.433
99056.608
98944.727
99043.702
98764.694
98918.444
98956.796
99038.787
98940.076
99025.957
98893.428
99014.188
98699.067
98872.918
98915.999
99008.443
98868.44
98971.603
98810.904
98949.561
98607.429
98786.706
98857.013
98944.904
98790.014
98893.459
98723.753
98861.763
98513.683
98669.143
98815.313
98875.762
98738.686
98810.822
98685.191
98787.18
98517.591
98608.772
98863.21
98880.682
98801.806
98815.542
98778.105
98803.5
98690.76
98685.752
98980.35
98968.438
98968.419
98941.927
99020.965
98985.89
99020.91
98949.493
99089.865
99042.976
99121.578
99058.162
99274.342
99186.632
99362.393
99239.687
99207.65
99119.01
99268.046
99162.033
99492.664
99362.691
99648.004
99491.045
99321.866
99215.65
99403.53
99268.174
99659.427
99512.832
99840.851
99694.38
99405.764
99305.656
99506.528
99373.404
99783.045
99632.594
99959.172
99831.078
99465.108
99369.664
99583.681
99454.498
99873.43
99725.75
100037.38
99927.79
99510.653
99414.001
99645.702
99514.665
99942.485
99797.497
100093.73
100001.67
99548.062
99446.042
99699.368
99563.917
99996.504
99853.684
100135.2
100058.83
99579.777
99472.707
99746.129
99609.065
100043.63
99905.113
100171.54
100104.7
99606.988
99496.135
99784.346
99648.727
100083.79
99953.325
100206.55
100147.92
99629.754
99516.388
99814.181
99680.097
100111.67
99989.281
100234.34
100188.8
99647.985
99531.825
99836.568
99703.79
100129.4
100013.14
100251.85
100219.13
99662.395
99543.093
99854.108
99721.661
100141.58
100030.06
100262.09
100238.03
99674.222
99552.025
99868.785
99735.947
100151.65
100043.27
100270.19
100250.97
99683.633
99559.113
99880.728
99747.492
100160.44
100054.61
100278.24
100262.93
99690.198
99564.307
99889.1
99755.753
100166.6
100062.64
100284.25
100272.21
99697.77
99570.899
99898.116
99765.377
100172.76
100071.18
100289.44
100280.48
99495.506
99560.012
99541.381
99580.043
99935.968
99903.095
99498.961
99562.119
99544.95
99582.766
99935.343
99901.809
99502.237
99564.092
99548.392
99585.367
99934.834
99900.586
99507.313
99567.035
99553.023
99588.691
99934.157
99898.912
99513.854
99570.782
99558.774
99592.687
99933.62
99897.035
99522.528
99575.719
99565.94
99597.658
99933.337
99894.992
99533.628
99581.989
99574.435
99603.637
99932.615
99891.981
99547.457
99589.702
99584.504
99610.677
99930.532
99887.37
99564.372
99598.933
99596.506
99618.996
99926.379
99880.791
99583.372
99609.239
99610.369
99628.588
99919.705
99871.376
99603.909
99620.263
99626.059
99639.13
99909.93
99857.032
99625.817
99632.125
99643.963
99650.882
99893.837
99834.052
99647.435
99645.825
99662.855
99663.017
99860.088
99795.644
99672.066
99662.64
99675.575
99668.092
99793.758
99728.401
99694.239
99676.245
99659.101
99650.009
99672.907
99612.431
99703.939
99679.546
99610.913
99611.171
99477.992
99442.852
99708.51
99679.786
99556.959
99571.445
99259.852
99254.03
99707.725
99674.228
99486.494
99516.344
99073.587
99106.62
99702.696
99666.743
99415.261
99482.352
98963.783
99045.968
99677.785
99644.833
99462.411
99597.963
98942.357
99053.098
99633.395
99607.569
99721.473
99817.289
98980.104
99055.099
99592.01
99568.402
99906.37
99872.984
99062.626
99051.829
99570.761
99546.93
99937.166
99860.488
99077.284
99058.059
99572.334
99543.413
99946.03
99858.625
99081.819
99058.322
99575.553
99541.777
99946.473
99857.749
99086.504
99061.518
99576.776
99539.368
99945.112
99857.834
99086.605
99059.926
99578.996
99538.748
99943.79
99856.907
99084.347
99058.315
99582.485
99540.422
99943.555
99855.39
99079.702
99057.764
99585.796
99542.512
99944.689
99853.985
99072.815
99056.409
99588.464
99544.405
99946.886
99853.578
99066.181
99054.113
99591.013
99546.246
99949.595
99854.286
99061.078
99051.77
99593.368
99547.919
99951.176
99855.201
99057.506
99050.022
99595.41
99549.477
99951.278
99855.571
99055.345
99048.831
99597.034
99550.744
99950.789
99855.268
99054.166
99047.869
99598.19
99551.578
99949.974
99854.598
99053.821
99047.462
99599.213
99552.273
99948.869
99853.525
99054.28
99047.518
99968.177
99933.976
99805.511
99716.319
99630.358
99543.841
99954.031
99878.503
99687.272
99578.206
99469.12
99377.041
99966.548
99932.413
99805.373
99716.932
99632.128
99546.743
99954.194
99878.432
99689.003
99581.122
99472.913
99380.835
99964.839
99930.829
99805.249
99717.495
99633.755
99549.384
99954.359
99878.353
99690.604
99583.792
99476.426
99384.263
99962.636
99928.757
99805.069
99718.255
99635.98
99553.077
99954.499
99878.082
99692.536
99587.241
99481.213
99389.245
99959.92
99926.168
99804.761
99719.049
99638.622
99557.568
99954.624
99877.735
99694.791
99591.293
99486.843
99395.29
99956.694
99923.047
99804.365
99719.928
99641.866
99563.2
99954.705
99877.411
99697.581
99596.118
99493.757
99402.852
99952.981
99919.365
99803.883
99720.839
99645.629
99570.007
99954.705
99877.251
99701.047
99601.704
99502.047
99412.189
99948.623
99915.043
99803.149
99721.667
99649.849
99577.928
99954.53
99877.304
99705.162
99607.977
99511.682
99423.794
99943.477
99909.975
99802.147
99722.346
99654.611
99587.182
99954.202
99877.436
99709.914
99614.925
99523.186
99438.489
99937.231
99904.059
99801.391
99722.795
99659.593
99597.487
99953.55
99877.744
99715.127
99622.181
99536.458
99456.139
99929.581
99896.601
99801.13
99723.925
99664.476
99608.277
99952.108
99878.306
99720.971
99629.62
99550.925
99476.755
99920.185
99886.76
99800.474
99726.13
99670.388
99620.491
99949.188
99878.903
99727.853
99636.816
99566.854
99500.389
99909.1
99873.169
99798.338
99728.263
99677.302
99634.356
99944.411
99879.207
99735.887
99644.617
99584.151
99525.488
99898.418
99855.991
99793.978
99729.108
99683.515
99649.893
99941.086
99880.528
99744.886
99652.276
99600.08
99553.185
99889.503
99836.252
99787.581
99728.638
99689.567
99665.917
99942.299
99884.072
99755.942
99660.281
99613.609
99581.055
99882.892
99815.855
99779.864
99727.331
99695.958
99681.007
99950.253
99887.913
99767.543
99670.799
99624.635
99602.843
99878.753
99798.519
99773.691
99727.946
99705.38
99701.367
99962.16
99893.211
99779.718
99682.766
99636.185
99621.186
99876.294
99786.071
99770.784
99731.57
99717.133
99725.094
99976.286
99901.637
99791.47
99696.259
99650.471
99639.451
99875.106
99779.883
99771.994
99738.853
99731.852
99747.714
99993.033
99915.522
99805.277
99711.283
99665.006
99655.356
99875.663
99780.221
99776.242
99747.984
99745.034
99764.506
100008.41
99931.558
99819.215
99725.403
99676.399
99664.64
99880.128
99787.1
99780.025
99754.941
99751.013
99771.78
100022.06
99948.869
99834.582
99741.507
99689.243
99671.196
99885.976
99793.203
99783.098
99759.996
99753.012
99768.126
100028.6
99958.43
99847.062
99757.202
99703.075
99678.098
99890.794
99798.341
99784.975
99760.575
99752.549
99762.308
100027.84
99962.891
99857.904
99771.965
99717.178
99686.798
99896.843
99808.27
99787.288
99759.035
99750.009
99755.625
100024.32
99966.454
99867.242
99784.217
99727.304
99692.658
99901.037
99817.49
99789.14
99756.739
99746.636
99749.247
100019.42
99967.899
99873.914
99793.614
99734.715
99696.948
99903.285
99823.863
99790.262
99754.642
99743.527
99743.876
100014.32
99967.21
99878.383
99800.34
99740.468
99700.262
99904.351
99826.73
99790.52
99752.975
99740.93
99739.511
100009.61
99965.235
99881.093
99804.945
99744.773
99702.968
99905.082
99827.604
99790.217
99751.67
99738.803
99736.174
100005.76
99963.01
99882.427
99807.994
99747.892
99705.174
99905.64
99827.652
99789.625
99750.535
99737.084
99733.611
100002.92
99961.047
99882.909
99809.886
99750.056
99707.017
99906.094
99827.566
99788.988
99749.427
99735.681
99731.614
100001.02
99959.508
99883.032
99810.987
99751.47
99708.398
99906.574
99827.464
99788.484
99748.448
99734.558
99730.101
99999.823
99958.419
99883.066
99811.617
99752.375
99709.371
99907.124
99827.366
99788.117
99747.728
99733.661
99728.846
99999.128
99957.682
99883.082
99811.997
99752.98
99710.077
99907.676
99827.203
99787.706
99747.124
99732.891
99727.755
99998.736
99957.165
99883.056
99812.223
99753.387
99710.592
99908.019
99826.892
99787.171
99746.468
99732.148
99726.802
99998.405
99956.729
99882.982
99812.343
99753.659
99710.959
99908.052
99826.477
99786.599
99745.801
99731.465
99726.012
99998.046
99956.32
99882.882
99812.399
99753.835
99711.215