/*--------------------------------*- C++ -*----------------------------------*\
| =========                 |                                                 |
| \\      /  F ield         | OpenFOAM: The Open Source CFD Toolbox           |
|  \\    /   O peration     | Version:  2206                                  |
|   \\  /    A nd           | Website:  www.openfoam.com                      |
|    \\/     M anipulation  |                                                 |
\*---------------------------------------------------------------------------*/
FoamFile
{
    version     2.0;
    format      ascii;
    arch        "LSB;label=32;scalar=64";
    class       surfaceScalarField;
    location    "100";
    object      phi;
}
// * * * * * * * * * * * * * * * * * * * * * * * * * * * * * * * * * * * * * //

dimensions      [1 0 -1 0 0 0 0];

oriented        oriented;

internalField   nonuniform List<scalar> 
146294
(
5.4029032e-07
-6.8221357e-09
-8.9982505e-08
2.0898029e-08
-4.6324377e-07
-3.745289e-08
-1.3285953e-07
1.876888e-08
6.9125322e-07
4.1948899e-07
-2.8074727e-08
-3.0874724e-08
-3.6748848e-07
-6.8878019e-08
-7.699455e-08
5.2789096e-07
1.6353008e-06
-2.121765e-07
-2.2485772e-07
2.360385e-07
-1.5237258e-06
-2.3693548e-07
-3.3958514e-07
2.335121e-07
1.8446092e-06
1.229272e-06
-7.6591051e-08
-2.0365632e-07
-1.1894733e-06
-1.7930651e-07
-2.5459146e-07
1.3572474e-06
2.8353647e-06
-5.3549249e-07
-3.3708817e-07
5.3779334e-07
-2.7249563e-06
-5.2913999e-07
-5.4891982e-07
5.3137743e-07
3.0422816e-06
2.1357613e-06
-1.1662979e-07
-4.8280402e-07
-2.1484282e-06
-3.0088045e-07
-5.0135493e-07
2.2296099e-06
4.1431391e-06
-9.0032539e-07
-4.3759568e-07
8.8066479e-07
-4.0229912e-06
-8.6117834e-07
-7.5039607e-07
8.6526673e-07
4.3399465e-06
3.1038184e-06
-1.6592654e-07
-7.8809959e-07
-3.1668844e-06
-4.3658972e-07
-7.7319637e-07
3.1514731e-06
5.4974558e-06
-1.241622e-06
-5.565921e-07
1.2091991e-06
-5.3458729e-06
-1.1798547e-06
-9.6802741e-07
1.1871998e-06
5.7077193e-06
4.1033865e-06
-2.3625888e-07
-1.0767032e-06
-4.1979469e-06
-5.9482823e-07
-1.0415289e-06
4.123405e-06
7.0029283e-06
-1.5959538e-06
-7.0245534e-07
1.5545463e-06
-6.8158713e-06
-1.5143639e-06
-1.2142979e-06
1.5183896e-06
7.2447872e-06
5.2513159e-06
-3.2527149e-07
-1.3849298e-06
-5.3734265e-06
-7.7699578e-07
-1.3367472e-06
5.2558228e-06
8.9560599e-06
-2.0367641e-06
-9.0742993e-07
2.018371e-06
-8.732655e-06
-1.9270221e-06
-1.5102396e-06
1.9459317e-06
9.2331173e-06
6.7321657e-06
-4.4915566e-07
-1.75945e-06
-6.8855614e-06
-9.964285e-07
-1.6972997e-06
6.7219799e-06
1.143993e-05
-2.5928576e-06
-1.232582e-06
2.6520005e-06
-1.1174074e-05
-2.4434144e-06
-1.8954685e-06
2.5220224e-06
1.1746395e-05
8.6137814e-06
-6.221397e-07
-2.2177175e-06
-8.8159762e-06
-1.266169e-06
-2.1351529e-06
8.5752511e-06
1.4537731e-05
-3.2959871e-06
-1.8008204e-06
3.4905956e-06
-1.4164118e-05
-3.1034623e-06
-2.4674748e-06
3.3035003e-06
1.4909729e-05
1.0977256e-05
-8.9774725e-07
-2.7814832e-06
-1.121612e-05
-1.6361538e-06
-2.6734946e-06
1.0917331e-05
1.8086557e-05
-4.1640498e-06
-2.5437443e-06
4.4643504e-06
-1.7643906e-05
-3.88853e-06
-3.2017652e-06
4.2499356e-06
1.8459492e-05
1.3794375e-05
-1.1849462e-06
-3.4690224e-06
-1.4202175e-05
-2.0461072e-06
-3.2887537e-06
1.3604585e-05
2.2637221e-05
-5.3059996e-06
-3.541349e-06
5.6385135e-06
-2.1972114e-05
-4.9594211e-06
-4.2338141e-06
5.4892476e-06
2.3139495e-05
1.7488213e-05
-1.5695763e-06
-4.3656134e-06
-1.804394e-05
-2.593972e-06
-4.128578e-06
1.7205268e-05
2.8620406e-05
-6.8725314e-06
-4.7419782e-06
7.0810729e-06
-2.7628194e-05
-6.4188913e-06
-5.5467731e-06
7.0692677e-06
2.9283118e-05
2.2648647e-05
-2.0045225e-06
-5.6587242e-06
-2.3427435e-05
-3.2658129e-06
-5.2637117e-06
2.216536e-05
3.4747068e-05
-8.5932531e-06
-5.8883558e-06
8.3542892e-06
-3.3361599e-05
-8.0541745e-06
-6.9287186e-06
8.6147935e-06
3.5568495e-05
2.8640617e-05
-2.3826115e-06
-7.1282634e-06
-2.9727454e-05
-3.9322637e-06
-6.5078728e-06
2.7760813e-05
4.3206972e-05
-1.0931547e-05
-7.3939979e-06
1.0057569e-05
-4.0827202e-05
-1.0351604e-05
-8.3272447e-06
1.0663799e-05
4.4293401e-05
3.7355317e-05
-3.1777454e-06
-9.2599928e-06
-3.8231661e-05
-4.4961332e-06
-8.3371718e-06
3.5904783e-05
5.1817488e-05
-1.3434045e-05
-9.6143545e-06
1.208546e-05
-4.8248387e-05
-1.2818111e-05
-1.0271899e-05
1.3013341e-05
5.3567038e-05
4.7592106e-05
-3.9663421e-06
-1.1824598e-05
-4.8412861e-05
-4.9415067e-06
-1.0446175e-05
4.5665664e-05
4.8467246e-05
-1.2848164e-05
-1.2996758e-05
1.1832687e-05
-4.4069128e-05
-1.2405842e-05
-1.3253293e-05
1.28222e-05
5.1032417e-05
4.8503625e-05
-4.6768561e-06
-1.1956306e-05
-4.8684843e-05
-5.2751969e-06
-1.0460265e-05
4.6891827e-05
4.3846606e-05
-1.2043366e-05
-1.6723593e-05
1.0823889e-05
-3.8900082e-05
-1.1706227e-05
-1.6498517e-05
1.1596201e-05
4.7201996e-05
4.9510358e-05
-5.1026973e-06
-1.1978916e-05
-4.9148847e-05
-5.3002915e-06
-1.0354e-05
4.8183331e-05
3.8098776e-05
-1.0904718e-05
-1.8797461e-05
8.0795848e-06
-3.3199505e-05
-1.0580968e-05
-1.7869985e-05
8.1993199e-06
4.1852054e-05
5.0316953e-05
-4.8788642e-06
-1.1915363e-05
-4.9529983e-05
-4.7010091e-06
-1.0226472e-05
4.9363245e-05
3.4526882e-05
-9.679633e-06
-1.7848457e-05
4.2721051e-06
-3.0068077e-05
-8.8827049e-06
-1.6046901e-05
3.7432604e-06
3.7843452e-05
5.0056591e-05
-3.5025604e-06
-1.2057537e-05
-4.9054877e-05
-3.2049094e-06
-1.0351895e-05
5.0029773e-05
3.6189208e-05
-1.0051869e-05
-1.2994266e-05
1.1777034e-06
-3.2168844e-05
-8.2045052e-06
-1.0016e-05
4.0045308e-07
3.7962571e-05
4.9790311e-05
-1.9758697e-06
-1.269506e-05
-4.8673695e-05
-1.444e-06
-1.0980104e-05
5.0805049e-05
4.2991599e-05
-1.1355307e-05
-6.972127e-06
1.0557194e-06
-3.8713793e-05
-8.4960304e-06
-2.4898382e-06
3.7703071e-07
4.3584815e-05
5.0001409e-05
-8.4985059e-07
-1.3664223e-05
-4.881844e-05
-2.0556462e-08
-1.1969822e-05
5.2051847e-05
5.1522772e-05
-1.33244e-05
-2.21321e-06
3.3701774e-06
-4.6327052e-05
-9.5368942e-06
2.8585409e-06
3.671059e-06
5.204043e-05
5.2009061e-05
-3.1792144e-07
-1.5005438e-05
-5.0859896e-05
8.8903659e-07
-1.3337157e-05
5.4899743e-05
4.4184916e-05
-1.1564658e-05
5.4898415e-07
3.9063154e-06
-3.9288222e-05
-8.2612743e-06
5.2432116e-06
4.6345976e-06
4.5427405e-05
4.3495102e-05
-1.3507488e-07
-1.2849419e-05
-4.2393095e-05
1.3788526e-06
-1.1587866e-05
4.6332045e-05
3.5690128e-05
-9.4001321e-06
1.6518073e-06
3.6328411e-06
-3.1025274e-05
-6.7775108e-06
5.2593267e-06
4.8789524e-06
3.7572813e-05
3.5355832e-05
-1.7667043e-07
-1.0601984e-05
-3.4112411e-05
1.4719248e-06
-9.7021743e-06
3.8187382e-05
2.7552982e-05
-7.2784695e-06
1.6970892e-06
2.9706839e-06
-2.3289652e-05
-5.3327119e-06
4.2937e-06
4.246634e-06
2.9605418e-05
2.8147578e-05
-3.3739629e-07
-8.5253366e-06
-2.6739701e-05
1.2835813e-06
-7.930423e-06
3.0934098e-05
2.0164003e-05
-5.2963455e-06
1.4200414e-06
2.101523e-06
-1.6691637e-05
-3.9119624e-06
3.4102394e-06
3.1045907e-06
2.1855272e-05
2.1730004e-05
-5.3020676e-07
-6.5965387e-06
-2.0237084e-05
1.0286924e-06
-6.2651008e-06
2.433797e-05
1.4910102e-05
-3.7215927e-06
1.1706433e-06
1.3111704e-06
-1.2249411e-05
-2.6905274e-06
2.7313205e-06
2.0986669e-06
1.6181704e-05
1.698841e-05
-5.630969e-07
-5.1183406e-06
-1.5558327e-05
9.1131131e-07
-4.9566443e-06
1.937264e-05
1.1488861e-05
-2.447332e-06
8.861036e-07
6.8741102e-07
-9.4438285e-06
-1.686488e-06
2.0655497e-06
1.3904712e-06
1.2451221e-05
1.3127597e-05
-3.957337e-07
-3.8666749e-06
-1.1875633e-05
9.3201437e-07
-3.8290653e-06
1.5249571e-05
9.5935204e-06
-1.5343459e-06
4.7947548e-07
3.0494652e-07
-7.9567475e-06
-9.9734153e-07
1.4061193e-06
1.0133223e-06
1.0237749e-05
1.0002856e-05
-1.9158137e-07
-2.802364e-06
-8.9384254e-06
9.0405299e-07
-2.8608666e-06
1.1895323e-05
8.5684758e-06
-1.0115099e-06
7.0881069e-08
1.6407779e-07
-7.3119073e-06
-6.2928151e-07
8.6637919e-07
8.428668e-07
8.8952268e-06
7.7722034e-06
-5.584224e-08
-2.0380039e-06
-6.8812682e-06
7.6453039e-07
-2.1529105e-06
9.4358027e-06
7.6968549e-06
-7.5050355e-07
-2.1218511e-07
1.6788288e-07
-6.8304516e-06
-4.6293791e-07
5.0179721e-07
7.495e-07
7.7757295e-06
6.2133732e-06
-7.73679e-10
-1.5390477e-06
-5.4791971e-06
5.5655767e-07
-1.6710471e-06
7.6307894e-06
6.5612586e-06
-6.1138865e-07
-3.5462862e-07
2.0121092e-07
-6.008036e-06
-3.7824345e-07
3.030685e-07
6.4643614e-07
6.4925314e-06
4.9217278e-06
-3.6687783e-09
-1.1743084e-06
-4.3554209e-06
3.5035359e-07
-1.2916643e-06
6.0423612e-06
5.2020282e-06
-5.1029693e-07
-3.3352477e-07
2.0543358e-07
-4.9173892e-06
-3.0900452e-07
2.0990201e-07
5.1923808e-07
5.0860474e-06
3.7443485e-06
-1.0393177e-08
-8.7608463e-07
-3.371034e-06
2.2169787e-07
-9.5324083e-07
4.5188159e-06
3.6079573e-06
-3.8333666e-07
-1.8130292e-07
1.7620088e-07
-3.5518625e-06
-2.1262435e-07
1.5394494e-07
3.7337191e-07
3.5045927e-06
2.5211513e-06
-1.1730175e-09
-5.7102899e-07
-2.3417141e-06
1.3458983e-07
-5.9667561e-07
2.9942355e-06
1.832473e-06
-2.0839583e-07
-4.0272779e-08
1.1881573e-07
-1.8825977e-06
-9.2694646e-08
6.4819448e-08
2.1067128e-07
1.8052082e-06
1.2994126e-06
1.8290547e-09
-2.7113728e-07
-1.2386239e-06
4.5617239e-08
-2.6458967e-07
1.5624591e-06
4.5462981e-07
-5.2806958e-08
4.6495165e-08
-4.8858866e-07
-8.4708084e-09
6.2032315e-08
4.6588824e-07
3.5084889e-07
-5.9015484e-08
-3.4280946e-07
-4.8125468e-08
4.3612218e-07
5.4585003e-07
-5.5305424e-08
-5.0961703e-08
-4.7050279e-07
-9.2774803e-08
-8.9633937e-08
6.5121398e-07
1.801591e-07
-5.0836199e-08
-3.0149774e-08
-1.5435563e-07
-1.0667272e-07
-3.0982549e-08
2.251344e-07
9.5498339e-08
-3.1853723e-08
-2.7997274e-08
-8.6385119e-08
-9.7129011e-08
-1.9956297e-08
1.0593673e-07
5.3311629e-08
-1.2574528e-08
-2.2028681e-08
-5.0506993e-08
-8.5686955e-08
-1.1463108e-08
5.3326308e-08
3.1688927e-08
-6.1131793e-10
-1.2565316e-08
-3.1044914e-08
-7.9208495e-08
-3.7927305e-09
2.8993574e-08
2.0699719e-08
2.2524343e-09
-3.2141764e-09
-2.0314566e-08
-7.7390507e-08
1.12921e-09
1.7745062e-08
1.5347389e-08
2.6864548e-09
-1.0060897e-09
-1.4750216e-08
3.9275479e-09
-7.8337157e-08
1.2360356e-08
1.576589e-06
-2.1896641e-07
-1.0350451e-07
-1.5088916e-06
-2.1590474e-07
-2.1822435e-07
1.6663796e-06
5.2127032e-07
-2.2424295e-07
-5.5843692e-08
-4.9022481e-07
-2.5521224e-07
-6.6863829e-08
5.9651708e-07
2.7360633e-07
-2.1886629e-07
-4.2986659e-08
-2.639428e-07
-2.6458918e-07
-3.4994775e-08
2.9803621e-07
1.5504439e-07
-2.1496552e-07
-2.9564982e-08
-1.5138137e-07
-2.6751449e-07
-1.8464062e-08
1.6496712e-07
9.7269312e-08
-2.1361237e-07
-1.6192554e-08
-9.4978654e-08
-2.677221e-07
-7.6711407e-09
1.0135175e-07
6.8533953e-08
-2.1329654e-07
-5.6968432e-09
-6.6351071e-08
-2.6628471e-07
-1.6312144e-09
6.9850725e-08
5.4544711e-08
8.3839513e-10
-2.1377699e-07
-5.2210237e-08
1.9293022e-09
-2.6375641e-07
5.4013283e-08
2.6864232e-06
-4.3497796e-07
-1.5021584e-07
-2.6875026e-06
-3.6117632e-07
-3.5751393e-07
2.6855825e-06
8.3405507e-07
-4.2833183e-07
-7.5766551e-08
-8.2073656e-07
-4.108306e-07
-1.0278227e-07
9.1965549e-07
4.2285609e-07
-4.2265632e-07
-4.9599168e-08
-4.218885e-07
-4.2744553e-07
-4.8066474e-08
4.5254777e-07
2.4093793e-07
-4.2317172e-07
-2.8651746e-08
-2.4131548e-07
-4.3604272e-07
-2.3592499e-08
2.546596e-07
1.5436525e-07
-4.248036e-07
-1.4552008e-08
-1.5436158e-07
-4.3901415e-07
-1.1048131e-08
1.6070947e-07
1.1119702e-07
-4.2511796e-07
-6.0151031e-09
-1.1055519e-07
-4.3789394e-07
-4.9664834e-09
1.1340893e-07
9.0020085e-08
-1.0351544e-09
-4.2454429e-07
-8.8713604e-08
-1.5958452e-09
-4.3380474e-07
8.9453258e-08
3.7700087e-06
-6.3992773e-07
-2.3227909e-07
-3.8362263e-06
-5.0852709e-07
-5.2470575e-07
3.6724704e-06
1.106811e-06
-6.1344502e-07
-1.0115321e-07
-1.1078908e-06
-5.6266391e-07
-1.4871034e-07
1.2068835e-06
5.5730562e-07
-6.0113359e-07
-5.7249494e-08
-5.6194783e-07
-5.8142361e-07
-6.5743808e-08
5.9374159e-07
3.1784902e-07
-5.9785219e-07
-2.8642335e-08
-3.2112803e-07
-5.8994567e-07
-3.1893588e-08
3.3467059e-07
2.0392747e-07
-5.9708122e-07
-1.3628349e-08
-2.056088e-07
-5.9320762e-07
-1.5889759e-08
2.1202633e-07
1.4718766e-07
-5.9660568e-07
-6.1888803e-09
-1.4748599e-07
-5.9243939e-07
-8.6041531e-09
1.5005614e-07
1.1940535e-07
-2.3821354e-09
-5.9613119e-07
-1.1852533e-07
-4.8675858e-09
-5.8846884e-07
1.1870269e-07
4.909965e-06
-8.5136966e-07
-3.4499855e-07
-5.0225229e-06
-6.6762034e-07
-7.239198e-07
4.735356e-06
1.4130057e-06
-8.1209117e-07
-1.3204777e-07
-1.4213748e-06
-7.3254673e-07
-2.03281e-07
1.5325129e-06
7.0927547e-07
-7.9389648e-07
-6.7207579e-08
-7.1749737e-07
-7.5657502e-07
-8.8622929e-08
7.5618211e-07
4.0460338e-07
-7.8633952e-07
-3.1179639e-08
-4.0961348e-07
-7.6621935e-07
-4.2795757e-08
4.2514635e-07
2.5963412e-07
-7.8234779e-07
-1.4998441e-08
-2.6224987e-07
-7.6909526e-07
-2.2696977e-08
2.6931603e-07
1.8720922e-07
-7.8000547e-07
-7.7861738e-09
-1.8794814e-07
-7.6733348e-07
-1.3617061e-08
1.9045748e-07
1.515632e-07
-4.3751986e-09
-7.7880955e-07
-1.5076468e-07
-9.0676118e-09
-7.6200493e-07
1.5043414e-07
6.2792066e-06
-1.0969251e-06
-4.7837517e-07
-6.4339272e-06
-8.5656218e-07
-9.5514294e-07
6.0301964e-06
1.7922144e-06
-1.0477109e-06
-1.6639589e-07
-1.8070882e-06
-9.3846402e-07
-2.6772759e-07
1.9385473e-06
8.986965e-07
-1.0224097e-06
-8.0195778e-08
-9.1100341e-07
-9.6828545e-07
-1.1666009e-07
9.5655178e-07
5.122913e-07
-1.0094087e-06
-3.7287085e-08
-5.1917408e-07
-9.79443e-07
-5.7283374e-08
5.3793358e-07
3.2841448e-07
-1.0020164e-06
-1.9086869e-08
-3.3171784e-07
-9.8232741e-07
-3.200159e-08
3.4060227e-07
2.3623165e-07
-9.9774311e-07
-1.1152468e-08
-2.3713233e-07
-9.7975773e-07
-2.0409905e-08
2.4045235e-07
1.9058867e-07
-7.4721029e-09
-9.9564772e-07
-1.8958872e-07
-1.4530349e-08
-9.7305157e-07
1.8934536e-07
8.0491895e-06
-1.4016598e-06
-6.3276609e-07
-8.2525449e-06
-1.0869673e-06
-1.2277799e-06
7.7115724e-06
2.2827537e-06
-1.3418127e-06
-2.0392658e-07
-2.3050632e-06
-1.1937573e-06
-3.4257384e-07
2.4643906e-06
1.1426553e-06
-1.3077299e-06
-9.7029384e-08
-1.1599017e-06
-1.2322375e-06
-1.5122149e-07
1.2156923e-06
6.5011993e-07
-1.2883815e-06
-4.7323727e-08
-6.5943015e-07
-1.2454969e-06
-7.6598627e-08
6.8269266e-07
4.157768e-07
-1.2770368e-06
-2.6162052e-08
-4.2004245e-07
-1.2486055e-06
-4.4587556e-08
4.3146889e-07
2.9806894e-07
-1.2705825e-06
-1.6592778e-08
-2.9908576e-07
-1.2451886e-06
-2.9459784e-08
3.0370124e-07
2.3930157e-07
-1.2039044e-08
-1.267407e-06
-2.3790806e-07
-2.1665514e-08
-1.236809e-06
2.3805383e-07
1.0316257e-05
-1.780136e-06
-8.0102446e-07
-1.058564e-05
-1.3644595e-06
-1.5421895e-06
9.8599384e-06
2.9179735e-06
-1.7111628e-06
-2.3957817e-07
-2.9513098e-06
-1.5074797e-06
-4.2799357e-07
3.1463909e-06
1.4591013e-06
-1.6687763e-06
-1.1567128e-07
-1.4828378e-06
-1.5594238e-06
-1.9319529e-07
1.5530162e-06
8.2828199e-07
-1.6439501e-06
-5.9683275e-08
-8.4075406e-07
-1.5774632e-06
-1.0069663e-07
8.7041473e-07
5.2791148e-07
-1.6296233e-06
-3.4951271e-08
-5.3344431e-07
-1.5825705e-06
-6.0043782e-08
5.4847328e-07
3.7660982e-07
-1.6218073e-06
-2.3215723e-08
-3.7780793e-07
-1.5794902e-06
-4.0329808e-08
3.8439873e-07
3.0038368e-07
-1.7446231e-08
-1.6183342e-06
-2.9844733e-07
-3.0099901e-08
-1.5701294e-06
2.994543e-07
1.3225926e-05
-2.2462157e-06
-9.9595844e-07
-1.3566246e-05
-1.6958464e-06
-1.9169579e-06
1.2623076e-05
3.7467396e-06
-2.1725207e-06
-2.6989844e-07
-3.7901152e-06
-1.8908009e-06
-5.2506777e-07
4.0387707e-06
1.8735052e-06
-2.1248796e-06
-1.3352776e-07
-1.903295e-06
-1.9641547e-06
-2.4241466e-07
1.9960694e-06
1.0602781e-06
-2.0966439e-06
-7.2356045e-08
-1.0758401e-06
-1.9916469e-06
-1.2916972e-07
1.1162385e-06
6.724408e-07
-2.081102e-06
-4.3836951e-08
-6.79106e-07
-2.0008622e-06
-7.8127786e-08
6.9973514e-07
4.7633161e-07
-2.0734907e-06
-2.9693201e-08
-4.774638e-07
-1.9992843e-06
-5.2846766e-08
4.872662e-07
3.7642529e-07
-2.2527166e-08
-2.071293e-06
-3.7354704e-07
-3.961036e-08
-1.9896126e-06
3.7626248e-07
1.6852862e-05
-2.7934835e-06
-1.0994983e-06
-1.7424865e-05
-2.0495299e-06
-2.2506454e-06
1.594733e-05
4.8149369e-06
-2.7151971e-06
-2.6426985e-07
-4.8988537e-06
-2.324054e-06
-6.0407076e-07
5.1684534e-06
2.4148167e-06
-2.6690536e-06
-1.3322668e-07
-2.4612682e-06
-2.4340459e-06
-2.8485356e-07
2.567241e-06
1.3629658e-06
-2.6432342e-06
-7.4016833e-08
-1.3871193e-06
-2.4788497e-06
-1.5455382e-07
1.4331464e-06
8.5869004e-07
-2.6305662e-06
-4.5647987e-08
-8.6955448e-07
-2.4965763e-06
-9.4211566e-08
8.9249209e-07
6.0227409e-07
-2.6261682e-06
-3.123219e-08
-6.0512644e-07
-2.499107e-06
-6.3862507e-08
6.1581108e-07
4.697756e-07
-2.3887415e-08
-2.6277004e-06
-4.6688492e-07
-4.7886049e-08
-2.4907757e-06
4.6971125e-07
2.1696424e-05
-3.4502788e-06
-1.2101827e-06
-2.2501053e-05
-2.4578128e-06
-2.6664625e-06
2.0441508e-05
6.2591964e-06
-3.3551079e-06
-2.2528257e-07
-6.3933505e-06
-2.8157427e-06
-6.9621902e-07
6.7092837e-06
3.1444362e-06
-3.3083889e-06
-1.1382925e-07
-3.2105651e-06
-2.9682568e-06
-3.3275442e-07
3.3448403e-06
1.7679303e-06
-3.2851386e-06
-6.4966353e-08
-1.8002317e-06
-3.0337693e-06
-1.8216765e-07
1.8610479e-06
1.1035371e-06
-3.2753965e-06
-4.0951014e-08
-1.1179953e-06
-3.0628146e-06
-1.1119173e-07
1.1495491e-06
7.6332473e-07
-3.27472e-06
-2.8591356e-08
-7.6664461e-07
-3.0708838e-06
-7.5171524e-08
7.8269237e-07
5.843375e-07
-2.2480209e-08
-3.2809332e-06
-5.7954457e-07
-5.6286672e-08
-3.0647271e-06
5.8657106e-07
2.8484476e-05
-4.3078149e-06
-1.4446655e-06
-2.960085e-05
-2.9213755e-06
-3.2898499e-06
2.6765571e-05
8.3052025e-06
-4.1428735e-06
-1.9214843e-07
-8.5032445e-06
-3.3843332e-06
-8.3376706e-07
8.9057426e-06
4.1719029e-06
-4.0843815e-06
-8.9211283e-08
-4.2550163e-06
-3.5980419e-06
-4.0078598e-07
4.453646e-06
2.3290163e-06
-4.0604473e-06
-5.23299e-08
-2.3655669e-06
-3.6978538e-06
-2.1981051e-07
2.4664859e-06
1.4362772e-06
-4.0538072e-06
-3.5298867e-08
-1.448578e-06
-3.7463012e-06
-1.3421891e-07
1.5077487e-06
9.7571353e-07
-4.0578171e-06
-2.6509114e-08
-9.7377319e-07
-3.7638223e-06
-9.0573139e-08
1.0086403e-06
7.2708476e-07
-2.2463073e-08
-4.0693596e-06
-7.15565e-07
-6.7628574e-08
-3.762611e-06
7.3721166e-07
3.6568772e-05
-5.1564085e-06
-1.4740993e-06
-3.8511125e-05
-3.2613378e-06
-3.8671633e-06
3.3899599e-05
1.0838349e-05
-4.8557462e-06
-1.0943019e-07
-1.1221719e-05
-3.8293471e-06
-9.5678383e-07
1.1529389e-05
5.4458385e-06
-4.7649634e-06
-3.2698214e-08
-5.5931149e-06
-4.1138301e-06
-4.5034894e-07
5.7799073e-06
3.0155049e-06
-4.7416011e-06
-1.8958286e-08
-3.0722664e-06
-4.265768e-06
-2.4586876e-07
3.1934898e-06
1.8299402e-06
-4.7476549e-06
-1.6007764e-08
-1.8431668e-06
-4.3455728e-06
-1.498692e-07
1.9254053e-06
1.2112071e-06
-4.7681637e-06
-1.5589389e-08
-1.2016423e-06
-4.3838008e-06
-1.0075102e-07
1.2596005e-06
8.6960295e-07
-1.6209092e-08
-4.7981278e-06
-8.4589413e-07
-7.4505872e-08
-4.3996615e-06
8.9233964e-07
4.7643144e-05
-6.4505421e-06
-2.0300172e-06
-4.9896601e-05
-4.0042028e-06
-4.1391605e-06
4.3582298e-05
1.4622142e-05
-5.8811345e-06
-2.17291e-07
-1.5083661e-05
-4.5110146e-06
-1.0516126e-06
1.5223817e-05
7.3223984e-06
-5.7048008e-06
-6.1049273e-08
-7.470337e-06
-4.8078155e-06
-4.7450394e-07
7.643404e-06
4.0178746e-06
-5.6590693e-06
-2.9905096e-08
-4.052667e-06
-4.9772442e-06
-2.5400572e-07
4.1954619e-06
2.3951876e-06
-5.6653103e-06
-2.1334849e-08
-2.3835861e-06
-5.0738984e-06
-1.5274113e-07
2.4947612e-06
1.5445765e-06
-5.6948136e-06
-1.9538953e-08
-1.5111399e-06
-5.128632e-06
-1.0142577e-07
1.5999904e-06
1.0709827e-06
-1.9471692e-08
-5.7383585e-06
-1.0241619e-06
-7.4080289e-08
-5.1618004e-06
1.1037564e-06
5.9489718e-05
-8.1995304e-06
-2.4721325e-06
-6.2672553e-05
-5.2160849e-06
-4.1894556e-06
5.4310041e-05
1.9800658e-05
-7.2395547e-06
-3.1802022e-07
-2.0659883e-05
-5.3952941e-06
-1.1002028e-06
2.0028509e-05
9.8890765e-06
-6.9275786e-06
-6.552434e-08
-1.019653e-05
-5.5829646e-06
-4.5612759e-07
1.0058415e-05
5.3792805e-06
-6.844988e-06
-1.7705453e-08
-5.4740815e-06
-5.7070058e-06
-2.3042634e-07
5.479771e-06
3.1532549e-06
-6.8455964e-06
-1.0903092e-08
-3.1630488e-06
-5.7921413e-06
-1.3369892e-07
3.2194023e-06
1.985588e-06
-6.8815718e-06
-1.1944694e-08
-1.9572266e-06
-5.8509078e-06
-8.6467883e-08
2.0294095e-06
1.3366982e-06
-1.401779e-08
-6.9364092e-06
-1.2873102e-06
-6.2300901e-08
-5.896487e-06
1.37054e-06
5.8849695e-05
-8.5225896e-06
-2.8169934e-06
-6.1938409e-05
-5.7266022e-06
-4.2434871e-06
5.4170144e-05
2.1387642e-05
-7.347581e-06
-4.8341503e-07
-2.2397201e-05
-5.4134613e-06
-1.2238664e-06
2.1198237e-05
1.0644196e-05
-6.9454695e-06
-9.7352278e-08
-1.101442e-05
-5.3976489e-06
-4.6697897e-07
1.0639292e-05
5.7381531e-06
-6.8373996e-06
-1.2105382e-08
-5.8517853e-06
-5.4424739e-06
-2.1334966e-07
5.7659632e-06
3.3100607e-06
-6.8361361e-06
-7.4237431e-10
-3.321437e-06
-5.4882139e-06
-1.1606966e-07
3.3382398e-06
2.0366264e-06
-6.875895e-06
-3.1985394e-09
-2.005603e-06
-5.5330053e-06
-7.2278677e-08
2.067262e-06
1.3320889e-06
-7.3453743e-09
-6.9349951e-06
-1.2796369e-06
-5.1005451e-08
-5.5788311e-06
1.3666764e-06
5.7536591e-05
-8.9869508e-06
-2.7927136e-06
-6.0552735e-05
-6.4306784e-06
-4.0340892e-06
5.340398e-05
2.2764075e-05
-7.6967328e-06
-6.6692872e-07
-2.3870742e-05
-5.7558291e-06
-1.3717355e-06
2.2237127e-05
1.1315947e-05
-7.234074e-06
-1.5839808e-07
-1.1717522e-05
-5.5652185e-06
-5.1171297e-07
1.1170103e-05
6.0563849e-06
-7.1083493e-06
-2.0015257e-08
-6.1741744e-06
-5.5323121e-06
-2.1332492e-07
6.0234952e-06
3.446705e-06
-7.1078996e-06
4.9134591e-09
-3.4527935e-06
-5.543697e-06
-1.0556538e-07
3.4476251e-06
2.0775021e-06
-7.1519862e-06
4.075886e-09
-2.0406805e-06
-5.577524e-06
-6.1486132e-08
2.1005597e-06
1.3220619e-06
-1.1054085e-09
-7.2146413e-06
-1.2656445e-06
-4.1542464e-08
-5.6248308e-06
1.3599333e-06
5.574956e-05
-9.4933762e-06
-2.3227797e-06
-5.8641379e-05
-7.2435599e-06
-3.4046073e-06
5.2137195e-05
2.3756837e-05
-8.2082249e-06
-7.9701282e-07
-2.4911859e-05
-6.3657787e-06
-1.4328175e-06
2.2940167e-05
1.1810087e-05
-7.7304259e-06
-2.2546017e-07
-1.222079e-05
-6.081127e-06
-5.4035671e-07
1.1554102e-05
6.2924387e-06
-7.6021712e-06
-3.6673553e-08
-6.4039847e-06
-6.0050839e-06
-2.1142359e-07
6.2145231e-06
3.5452684e-06
-7.6050844e-06
5.2126279e-09
-3.542638e-06
-5.9983043e-06
-9.5675085e-08
3.5286102e-06
2.1026377e-06
-7.6533807e-06
8.4059822e-09
-2.0586429e-06
-6.028297e-06
-5.1442258e-08
2.1226e-06
1.3074357e-06
3.9855276e-09
-7.7193596e-06
-1.2465367e-06
-3.2793035e-08
-6.0792398e-06
1.3496372e-06
5.4158553e-05
-1.0008437e-05
-1.5909951e-06
-5.6939378e-05
-7.8956774e-06
-2.5637823e-06
5.0861568e-05
2.3894444e-05
-8.8305235e-06
-8.1567977e-07
-2.5053656e-05
-7.0406369e-06
-1.3036797e-06
2.2910291e-05
1.190899e-05
-8.3688669e-06
-2.6538861e-07
-1.2330714e-05
-6.7465283e-06
-4.8859335e-07
1.1563114e-05
6.3538896e-06
-8.2295264e-06
-5.4217761e-08
-6.4756328e-06
-6.6470637e-06
-1.7844422e-07
6.2215009e-06
3.5811252e-06
-8.2202768e-06
1.8537089e-10
-3.5853624e-06
-6.6221251e-06
-7.3154275e-08
3.5336683e-06
2.1223714e-06
-8.2599252e-06
8.5542965e-09
-2.0828361e-06
-6.6399048e-06
-3.5965796e-08
2.1247138e-06
1.3171442e-06
6.1178531e-09
-8.3196e-06
-1.259603e-06
-2.1957637e-08
-6.6827657e-06
1.349185e-06
5.3098785e-05
-1.0730873e-05
-8.8827874e-07
-5.5765634e-05
-8.6623674e-06
-1.6976992e-06
4.9914955e-05
2.3440388e-05
-9.6391611e-06
-7.6379858e-07
-2.458394e-05
-7.8889195e-06
-1.0990906e-06
2.2462386e-05
1.1728269e-05
-9.1999115e-06
-2.6457188e-07
-1.2168328e-05
-7.6108948e-06
-4.0045605e-07
1.1362105e-05
6.2902494e-06
-9.0493732e-06
-5.982717e-08
-6.4351052e-06
-7.4952033e-06
-1.3467229e-07
6.1308362e-06
3.5742478e-06
-9.0239985e-06
-3.2487869e-09
-3.596198e-06
-7.4520181e-06
-4.8266201e-08
3.5061661e-06
2.1424412e-06
-9.0502126e-06
7.5504116e-09
-2.1151743e-06
-7.4535438e-06
-2.0467056e-08
2.1285011e-06
1.3499186e-06
6.3087619e-09
-9.099438e-06
-1.3008804e-06
-1.1680093e-08
-7.4825952e-06
1.3686978e-06
5.1957881e-05
-1.1598409e-05
-4.3816133e-07
-5.4473783e-05
-9.6362782e-06
-9.8039451e-07
4.8907098e-05
2.2945046e-05
-1.0541783e-05
-7.2865736e-07
-2.4036792e-05
-8.9160448e-06
-8.7930844e-07
2.2005052e-05
1.1527503e-05
-1.0109065e-05
-2.6440085e-07
-1.196041e-05
-8.6455489e-06
-3.0052079e-07
1.1157064e-05
6.2140315e-06
-9.9446576e-06
-7.1325049e-08
-6.3668873e-06
-8.5139316e-06
-9.085811e-08
6.0386499e-06
3.5583538e-06
-9.9010199e-06
-1.4151556e-08
-3.5911209e-06
-8.4533813e-06
-2.7115457e-08
3.4766411e-06
2.1570175e-06
-9.9117656e-06
-2.6143258e-10
-2.138419e-06
-8.4387284e-06
-8.8940483e-09
2.1308281e-06
1.3795774e-06
1.2113482e-09
-9.9491892e-06
-1.3370675e-06
-4.6391606e-09
-8.4534636e-06
1.387269e-06
5.1136612e-05
-1.2681646e-05
-2.9750739e-07
-5.3601062e-05
-1.0882448e-05
-6.1254693e-07
4.8313971e-05
2.2523369e-05
-1.1630407e-05
-7.0473183e-07
-2.35985e-05
-1.0248235e-05
-7.2376991e-07
2.1733664e-05
1.1343917e-05
-1.1201577e-05
-2.5692323e-07
-1.1780217e-05
-1.0004082e-05
-2.3694936e-07
1.1036207e-05
6.1159257e-06
-1.103015e-05
-7.935335e-08
-6.2792375e-06
-9.8720963e-06
-7.2152069e-08
5.965299e-06
3.4981909e-06
-1.0973544e-05
-2.5070496e-08
-3.5438872e-06
-9.805321e-06
-2.25775e-08
3.4268735e-06
2.1178124e-06
-1.0970971e-05
-9.5846562e-09
-2.1110026e-06
-9.7822527e-06
-8.4986777e-09
2.0943886e-06
1.3531142e-06
-5.7600768e-09
-1.0995928e-05
-1.3211889e-06
-5.1730129e-09
-9.7876735e-06
1.3590673e-06
4.0505385e-05
-1.0989745e-05
-3.0766424e-07
-4.2354861e-05
-9.6134224e-06
-3.8665391e-07
3.830523e-05
1.7782886e-05
-1.0196131e-05
-6.5355471e-07
-1.8627713e-05
-9.1811313e-06
-5.4502458e-07
1.7171837e-05
8.970395e-06
-9.8853863e-06
-2.2128624e-07
-9.3168207e-06
-9.0344017e-06
-1.3664567e-07
8.7233509e-06
4.8191042e-06
-9.7618561e-06
-6.5850329e-08
-4.9560864e-06
-8.9540359e-06
-2.7795054e-08
4.6944522e-06
2.7336243e-06
-9.718579e-06
-2.1181023e-08
-2.7808165e-06
-8.9115476e-06
-3.0761861e-09
2.6716379e-06
1.6350572e-06
-9.7127629e-06
-8.8780804e-09
-1.6415386e-06
-8.8967033e-06
1.0098928e-09
1.6107524e-06
1.0288116e-06
-5.758868e-09
-9.7255385e-06
-1.016046e-06
3.997803e-10
-8.9004958e-06
1.02704e-06
3.234992e-05
-9.2327197e-06
-4.4824264e-07
-3.3578697e-05
-8.1627301e-06
-3.0829555e-07
3.0731934e-05
1.4192793e-05
-8.593151e-06
-6.7335919e-07
-1.4812574e-05
-7.8249403e-06
-4.3872032e-07
1.3748765e-05
7.1638637e-06
-8.341502e-06
-2.1795423e-07
-7.4188458e-06
-7.7170029e-06
-6.0011622e-08
6.9793156e-06
3.8364636e-06
-8.2430007e-06
-6.1890165e-08
-3.9389514e-06
-7.6624914e-06
1.4385354e-08
3.7397677e-06
2.1599755e-06
-8.2084647e-06
-1.9086799e-08
-2.1965682e-06
-7.6360996e-06
1.9286426e-08
2.1112629e-06
1.2775125e-06
-8.2028054e-06
-7.7656114e-09
-1.2842954e-06
-7.6289978e-06
1.3931668e-08
1.2574871e-06
7.9202986e-07
-4.8925165e-09
-8.2107493e-06
-7.8491982e-07
8.9209402e-09
-7.6343893e-06
7.8892767e-07
2.6102541e-05
-7.643098e-06
-6.134643e-07
-2.6819295e-05
-6.7850491e-06
-3.370601e-07
2.4986363e-05
1.1493835e-05
-7.1369133e-06
-7.220882e-07
-1.195139e-05
-6.4944365e-06
-3.9653288e-07
1.1160904e-05
5.8030448e-06
-6.9155518e-06
-2.3497313e-07
-6.0073694e-06
-6.3837325e-06
-1.6672578e-08
5.6490479e-06
3.0973817e-06
-6.8263484e-06
-6.6208995e-08
-3.1822827e-06
-6.3292832e-06
4.3565986e-08
3.0137639e-06
1.7330387e-06
-6.7929966e-06
-2.0909554e-08
-1.7645295e-06
-6.3027405e-06
3.6521876e-08
1.6893144e-06
1.0157473e-06
-6.7847779e-06
-8.9145933e-09
-1.0228287e-06
-6.2934841e-06
2.4452018e-08
9.9597688e-07
6.2224394e-07
-5.8553489e-09
-6.7882325e-06
-6.1780361e-07
1.5689539e-08
-6.2946775e-06
6.1670013e-07
2.0864592e-05
-6.1934242e-06
-7.9179732e-07
-2.108945e-05
-5.5304125e-06
-4.4167738e-07
2.0234364e-05
9.2624355e-06
-5.8308252e-06
-8.0827059e-07
-9.5387701e-06
-5.3002018e-06
-4.2504236e-07
9.0610223e-06
4.6823681e-06
-5.6442184e-06
-2.8508915e-07
-4.8188792e-06
-5.1846505e-06
-2.7329973e-08
4.5774672e-06
2.4961937e-06
-5.5644127e-06
-9.1327935e-08
-2.5509092e-06
-5.1233875e-06
3.9759839e-08
2.4387224e-06
1.3913467e-06
-5.5328756e-06
-3.408436e-08
-1.40968e-06
-5.0919758e-06
3.5467025e-08
1.3610226e-06
8.1037231e-07
-5.5229148e-06
-1.6738888e-08
-8.1251411e-07
-5.0777974e-06
2.3915064e-08
7.9673329e-07
4.92354e-07
-1.1273184e-08
-5.5229868e-06
-4.8683577e-07
1.4847712e-08
-5.0733734e-06
4.8880057e-07
1.7130341e-05
-5.1210619e-06
-8.764636e-07
-1.7042561e-05
-4.5885375e-06
-4.9865535e-07
1.6819826e-05
7.6635281e-06
-4.8749591e-06
-8.5772589e-07
-7.8602831e-06
-4.4175492e-06
-4.6104293e-07
7.5283245e-06
3.8577043e-06
-4.727389e-06
-3.2224133e-07
-3.968116e-06
-4.3114568e-06
-5.5103902e-08
3.7794322e-06
2.0546703e-06
-4.6621485e-06
-1.1236627e-07
-2.0988644e-06
-4.2528051e-06
2.5275112e-08
2.0105211e-06
1.142591e-06
-4.6347151e-06
-4.5620311e-08
-1.1584943e-06
-4.2213953e-06
2.8256502e-08
1.1183925e-06
6.6334854e-07
-4.6242733e-06
-2.3798381e-08
-6.6671063e-07
-4.2052409e-06
1.949066e-08
6.5163838e-07
4.0156537e-07
-1.6120196e-08
-4.6220298e-06
-3.9896145e-07
1.1409327e-08
-4.1976765e-06
3.9744578e-07
1.405633e-05
-4.2034205e-06
-7.7592348e-07
-1.3820086e-05
-3.7766585e-06
-4.2958711e-07
1.3934919e-05
6.3676485e-06
-4.0600755e-06
-8.2729149e-07
-6.5412012e-06
-3.6573017e-06
-4.6352225e-07
6.2511671e-06
3.1895318e-06
-3.9435457e-06
-3.2629871e-07
-3.3020165e-06
-3.5632045e-06
-7.7277492e-08
3.1176067e-06
1.6948374e-06
-3.8902177e-06
-1.1705175e-07
-1.743461e-06
-3.5144729e-06
1.4986374e-08
1.6564184e-06
9.3979855e-07
-3.8672813e-06
-4.8569503e-08
-9.5978865e-07
-3.4891583e-06
2.3502842e-08
9.1924487e-07
5.4371652e-07
-3.8581592e-06
-2.6024063e-08
-5.5059076e-07
-3.475913e-06
1.6533238e-08
5.3345e-07
3.2779223e-07
-1.7938643e-08
-3.8557386e-06
-3.2839261e-07
9.0358724e-09
-3.4692738e-06
3.2353447e-07
1.1295522e-05
-3.3505162e-06
-5.9296636e-07
-1.0929827e-05
-3.0488178e-06
-3.1106242e-07
1.1365732e-05
5.2167605e-06
-3.3094909e-06
-7.6098629e-07
-5.3241439e-06
-2.9968666e-06
-4.5710842e-07
5.1582005e-06
2.612954e-06
-3.2294837e-06
-3.2298396e-07
-2.6962203e-06
-2.924091e-06
-1.0738363e-07
2.5703766e-06
1.3878732e-06
-3.1912773e-06
-1.203177e-07
-1.4227976e-06
-2.8871998e-06
-1.091634e-09
1.3670918e-06
7.6776189e-07
-3.1754104e-06
-5.0912871e-08
-7.8127081e-07
-2.8681397e-06
1.4634924e-08
7.5758686e-07
4.4248811e-07
-3.1696417e-06
-2.7939459e-08
-4.4633954e-07
-2.8579454e-06
1.0853731e-08
4.3798197e-07
2.6542361e-07
-1.9377576e-08
-3.1687454e-06
-2.6486807e-07
5.1218133e-09
-2.852728e-06
2.6413358e-07
9.0405086e-06
-2.6413877e-06
-3.9256409e-07
-8.6372991e-06
-2.4322813e-06
-1.9624203e-07
9.2054628e-06