/*--------------------------------*- C++ -*----------------------------------*\
| =========                 |                                                 |
| \\      /  F ield         | OpenFOAM: The Open Source CFD Toolbox           |
|  \\    /   O peration     | Version:  2206                                  |
|   \\  /    A nd           | Website:  www.openfoam.com                      |
|    \\/     M anipulation  |                                                 |
\*---------------------------------------------------------------------------*/
FoamFile
{
    version     2.0;
    format      ascii;
    arch        "LSB;label=32;scalar=64";
    class       volScalarField;
    location    "100";
    object      rho;
}
// * * * * * * * * * * * * * * * * * * * * * * * * * * * * * * * * * * * * * //

dimensions      [1 -3 0 0 0 0 0];

internalField   nonuniform List<scalar> 
50904
(
1.1680525
1.1674897
1.1678962
1.1671727
1.1681498
1.1676148
1.1679952
1.1673217
1.1683375
1.1678182
1.168182
1.1675331
1.1686157
1.1680872
1.1684934
1.1678117
1.1689313
1.1683874
1.1688233
1.1680974
1.1691458
1.1686106
1.1690658
1.1683392
1.1693048
1.1688027
1.1693141
1.1686227
1.1694703
1.1690267
1.1696429
1.1690175
1.1696756
1.1693193
1.1700797
1.1695535
1.1699316
1.1696803
1.1706476
1.1702478
1.1701826
1.1700489
1.1713031
1.1710136
1.1702828
1.1702582
1.171675
1.1714277
1.1702126
1.1702775
1.171778
1.1715318
1.1700784
1.1702434
1.171962
1.1717686
1.1699317
1.1702377
1.1723461
1.1722792
1.1697978
1.1702613
1.1728245
1.1729589
1.1697375
1.1703379
1.1733971
1.1737979
1.1697741
1.1704414
1.1740755
1.1747475
1.169867
1.1705885
1.1749125
1.1758585
1.1700387
1.1707893
1.175904
1.1771362
1.1701945
1.170998
1.1767751
1.1782942
1.1702576
1.1711064
1.1773018
1.179013
1.1700768
1.1709198
1.1767479
1.1782899
1.1697222
1.170478
1.1753581
1.176476
1.1692622
1.1699107
1.1738203
1.1746117
1.1688544
1.1694116
1.1724232
1.1729917
1.1684375
1.1688891
1.1712664
1.1716967
1.1681972
1.168583
1.1703928
1.1707596
1.1680581
1.1684082
1.1698253
1.1701527
1.1680036
1.1683269
1.1695017
1.1697942
1.168011
1.1683147
1.1693131
1.1695733
1.1680495
1.1683383
1.1691652
1.1693874
1.1680766
1.1683619
1.1689892
1.1691838
1.1680826
1.1683809
1.1688075
1.1690066
1.16808
1.1683894
1.1686997
1.1689004
1.1680823
1.1683943
1.1686707
1.1688702
1.1676397
1.1669561
1.1678325
1.1673822
1.1680664
1.1678182
1.1682641
1.1681879
1.1684179
1.1684494
1.1685288
1.1686227
1.1686096
1.1687434
1.1677185
1.1671029
1.1679002
1.1675379
1.168169
1.1679779
1.1683935
1.1683271
1.1685486
1.1685546
1.1686544
1.1687059
1.1687327
1.1688149
1.1679036
1.1673248
1.1680297
1.1677107
1.1682264
1.1680247
1.1683876
1.168302
1.1685195
1.1685043
1.1686329
1.1686624
1.1687376
1.1687989
1.1681348
1.1675433
1.1680911
1.1677731
1.1682001
1.1680198
1.1683164
1.1682447
1.1684322
1.168425
1.1685486
1.1685785
1.1686693
1.1687246
1.1683361
1.1677402
1.1681742
1.1678878
1.1682511
1.1681069
1.1683396
1.1683076
1.1684372
1.1684718
1.168545
1.1686165
1.1686669
1.168762
1.1685603
1.1679888
1.1683864
1.1681427
1.1684636
1.1683579
1.1685416
1.1685506
1.1686305
1.1687109
1.168733
1.168853
1.168853
1.1689978
1.1688968
1.1683792
1.1687991
1.1686168
1.1689002
1.1688518
1.1689815
1.1690517
1.1690698
1.1692193
1.1691701
1.1693657
1.1692865
1.1695129
1.1693915
1.1689654
1.1694534
1.1693865
1.1696085
1.1696866
1.1697077
1.1699221
1.1698033
1.170117
1.1699046
1.1702809
1.1700165
1.1704379
1.1700744
1.1698075
1.1704198
1.1706007
1.1707156
1.1710873
1.1708851
1.1714283
1.1710188
1.1716944
1.171139
1.1719046
1.1712542
1.1720875
1.1710306
1.1709938
1.1718849
1.1724721
1.1725166
1.1733791
1.172881
1.1739426
1.173126
1.1743407
1.1733049
1.1746245
1.1734412
1.17484
1.1722423
1.1723719
1.1738428
1.1748043
1.1750325
1.1763708
1.1757217
1.1772556
1.176132
1.1777968
1.1763733
1.1781201
1.1764944
1.1783035
1.1727428
1.1729209
1.1747775
1.1759339
1.1765579
1.1781356
1.1776192
1.1793538
1.1782035
1.1800109
1.1784806
1.1803123
1.1785363
1.1803802
1.1723457
1.1724125
1.173396
1.1745602
1.1748747
1.1765873
1.1757853
1.1777417
1.1762932
1.1783505
1.1765023
1.1785831
1.1764895
1.1785605
1.1723732
1.1723761
1.1728471
1.1738599
1.1740026
1.1756563
1.174846
1.1767845
1.1753238
1.1774134
1.1755209
1.1776987
1.1755155
1.1777547
1.1730565
1.17306
1.173418
1.1743878
1.1744742
1.1761393
1.1753338
1.177321
1.1758444
1.1780139
1.1760701
1.1783654
1.1760868
1.178486
1.1743344
1.1744059
1.1749588
1.1759167
1.1759641
1.1776668
1.1768248
1.1789397
1.1773733
1.1797522
1.1776437
1.1802108
1.1776975
1.1804157
1.1761361
1.1763781
1.1775512
1.178646
1.1788691
1.1808047
1.179986
1.1824483
1.1807511
1.1835573
1.1811934
1.1842356
1.1813784
1.1845994
1.1782868
1.1788053
1.1809094
1.1822677
1.1828609
1.1851419
1.1844434
1.1872879
1.1855442
1.1887209
1.1862339
1.1896204
1.1866087
1.1901504
1.1806648
1.1815411
1.1847312
1.1864762
1.1875599
1.1902189
1.1897137
1.1928223
1.1911892
1.1944853
1.192157
1.1955395
1.1927665
1.1962129
1.1831255
1.1844279
1.1887648
1.1909663
1.1925542
1.1955024
1.1952476
1.1983402
1.1970404
1.2000321
1.1982447
1.2011059
1.1990774
1.2018505
1.1851696
1.1869058
1.1921733
1.194608
1.1965432
1.1991222
1.1993017
1.2014821
1.2010455
1.2028253
1.202251
1.2037238
1.2031629
1.2044303
1.1862085
1.1881329
1.1936451
1.1955832
1.1976585
1.198904
1.199744
1.2002844
1.2010502
1.2009468
1.202027
1.2014039
1.2028519
1.2018528
1.1845843
1.1860371
1.1903663
1.1916728
1.1935133
1.1944056
1.1952811
1.1955218
1.1964322
1.1960758
1.1973365
1.1965269
1.1981543
1.1970239
1.1809695
1.1816715
1.1840891
1.1847771
1.1858272
1.1866378
1.1869688
1.1876721
1.1878294
1.1883261
1.1885662
1.1888717
1.1892651
1.1894218
1.1778961
1.178049
1.1792697
1.1792546
1.1797457
1.1799625
1.1801001
1.1804812
1.1804807
1.1809049
1.1808986
1.1813073
1.1813616
1.1817355
1.1755485
1.175407
1.1760299
1.1756508
1.1759321
1.1757396
1.1759117
1.1759127
1.1760412
1.1761364
1.1762781
1.1763971
1.1765992
1.1767066
1.173764
1.1735225
1.1738723
1.1733939
1.1736361
1.173267
1.1735035
1.1732638
1.1735284
1.1733639
1.1736722
1.1735305
1.1739101
1.173759
1.1724391
1.1721856
1.1723859
1.1719417
1.1721793
1.1718502
1.1721096
1.171861
1.1721473
1.1719437
1.1722752
1.1720804
1.1724784
1.1722691
1.1715203
1.1712682
1.1713234
1.1709285
1.1711116
1.1708941
1.171111
1.1709733
1.1711807
1.1710806
1.1713131
1.1712184
1.1715009
1.1713896
1.1709376
1.170677
1.1706259
1.1702411
1.1703699
1.1702049
1.1703833
1.1703077
1.1704561
1.1704192
1.170579
1.1705477
1.1707484
1.1707002
1.1705593
1.1702891
1.1702013
1.169805
1.1699159
1.1697426
1.1699263
1.1698486
1.1699943
1.1699508
1.1701067
1.1700654
1.1702592
1.1702008
1.1702219
1.1699499
1.1699106
1.1695119
1.1696586
1.1694613
1.1696847
1.1695725
1.1697624
1.1696781
1.1698761
1.1697904
1.1700205
1.169918
1.1698123
1.1695629
1.169624
1.1692609
1.1694894
1.1692864
1.1695664
1.1694268
1.1696674
1.1695487
1.1697878
1.1696684
1.1699254
1.1697935
1.1694272
1.1692399
1.1693085
1.1690017
1.1692799
1.1691037
1.1694386
1.1693123
1.1695698
1.1694579
1.1696806
1.1695699
1.1697902
1.1696719
1.1692136
1.1690664
1.1691194
1.1688489
1.16906
1.1688991
1.169226
1.1691073
1.1693996
1.1692954
1.1695275
1.1694217
1.1696185
1.1695031
1.1691514
1.1690148
1.1690717
1.1688099
1.1690043
1.1688463
1.169114
1.1689966
1.169232
1.1691292
1.169341
1.1692423
1.1694282
1.1693222
1.1686811
1.1688438
1.1687393
1.1689178
1.1687881
1.1689681
1.1688452
1.1690208
1.1689072
1.1691018
1.1689878
1.1692746
1.1688022
1.1689069
1.1688524
1.1689736
1.1688923
1.1690261
1.1689262
1.1690779
1.1689632
1.1691564
1.1690431
1.1693362
1.1688429
1.1689297
1.1689282
1.1690351
1.1690081
1.1691324
1.1690781
1.1692242
1.1691307
1.169318
1.1691924
1.1694686
1.1688033
1.1688777
1.1689238
1.1690139
1.1690451
1.1691495
1.1691672
1.1692911
1.169254
1.1694211
1.1692736
1.1695376
1.1688128
1.1689255
1.168952
1.1690748
1.1690958
1.1692274
1.1692535
1.1693975
1.1693753
1.1695558
1.1693769
1.1696605
1.1690019
1.1691644
1.1691473
1.1693171
1.1692961
1.1694705
1.1694608
1.169645
1.1695839
1.1698067
1.1695695
1.1699136
1.1694305
1.16968
1.1695705
1.1698297
1.1697059
1.1699745
1.1698441
1.1701267
1.1699266
1.170261
1.169876
1.1703873
1.1701506
1.1706086
1.1702736
1.1707543
1.1703792
1.1708795
1.1704579
1.170984
1.17046
1.1710638
1.1703881
1.1712545
1.1713775
1.17227
1.1714766
1.1724117
1.1715358
1.1725042
1.1715162
1.1725249
1.1714033
1.1725102
1.1713659
1.1728035
1.173554
1.1750217
1.173607
1.1751308
1.1735638
1.1751333
1.1733429
1.1749624
1.1730256
1.1747372
1.1730517
1.1750978
1.1765277
1.1783908
1.1764382
1.1783355
1.1761643
1.1780757
1.1755596
1.1774865
1.1748517
1.1768343
1.1747939
1.1770121
1.1784106
1.1802258
1.1781015
1.1798441
1.1775512
1.1792035
1.1765661
1.1781632
1.1754579
1.1772082
1.1752372
1.1772359
1.1762844
1.1783228
1.1759182
1.177901
1.1753613
1.177303
1.174596
1.1765179
1.1740587
1.1760018
1.1742596
1.1762854
1.1753436
1.177639
1.1750195
1.1773831
1.1745795
1.1769986
1.1741077
1.1765365
1.1739111
1.176373
1.1743825
1.1770068
1.1759345
1.1784369
1.1756105
1.1782359
1.1751722
1.1779068
1.1747199
1.1775057
1.1745623
1.1774497
1.1751173
1.1783293
1.1775789
1.1804407
1.1772518
1.1802731
1.1767767
1.1799379
1.1762497
1.1794671
1.1760154
1.1793381
1.1765241
1.1802816
1.181379
1.1847665
1.1811132
1.1846799
1.1806467
1.1843651
1.1800648
1.1838001
1.1797522
1.1834866
1.1802262
1.1842554
1.1867904
1.1904816
1.1866446
1.190506
1.1862421
1.1902515
1.1856421
1.1896093
1.1852493
1.1890469
1.1856437
1.1894432
1.1931738
1.1966947
1.1932317
1.1968551
1.1929858
1.1967114
1.1924097
1.1960301
1.1918983
1.1951315
1.1921057
1.1948904
1.1997505
1.2024665
1.2000883
1.2027796
1.2001099
1.2028122
1.1996282
1.2022174
1.1989401
1.200971
1.1987158
1.1998164
1.2040121
1.2051126
1.2046012
1.2055635
1.204939
1.2058196
1.2046992
1.2055229
1.2039031
1.2042949
1.2031613
1.2024817
1.2037032
1.202383
1.2043877
1.2027998
1.2049396
1.2031401
1.2050898
1.2030821
1.2044222
1.2020094
1.203027
1.1994735
1.1990565
1.1976579
1.1998724
1.1982447
1.2006092
1.1988129
1.2010787
1.1991758
1.2007985
1.1987127
1.1997841
1.1967514
1.190076
1.1901004
1.1908681
1.1907649
1.1916155
1.1914131
1.1922174
1.1919646
1.1924341
1.1920622
1.1923202
1.1912822
1.1819632
1.1822917
1.1826115
1.1828782
1.1832831
1.1834792
1.1839385
1.1840815
1.1843989
1.1844865
1.1845976
1.1843701
1.1770622
1.1771392
1.1776125
1.177633
1.1782319
1.1781825
1.1788841
1.1788092
1.1793629
1.1793249
1.1795558
1.1794195
1.1742852
1.1741029
1.1747711
1.1745274
1.1753503
1.1750331
1.1759872
1.1756596
1.1764647
1.1762217
1.176618
1.1764195
1.1727978
1.1725551
1.1732188
1.172918
1.1737302
1.1733613
1.1743032
1.1739241
1.1747464
1.1744506
1.1749051
1.1746996
1.1717847
1.1716373
1.1721516
1.171949
1.1725893
1.1723287
1.1730708
1.1728049
1.173453
1.1732547
1.1736315
1.1735191
1.1709986
1.1709158
1.1713127
1.1711808
1.1716789
1.171501
1.1720722
1.1718926
1.1723859
1.1722628
1.1725486
1.1724967
1.17048
1.1703894
1.1707449
1.1706152
1.1710451
1.170883
1.1713583
1.1711985
1.1716083
1.1714948
1.1717359
1.1716756
1.1702171
1.170088
1.1704344
1.1702793
1.1706713
1.1704969
1.1709103
1.1707402
1.1711026
1.170965
1.1712041
1.1711036
1.1700965
1.1699467
1.1702668
1.1701033
1.1704445
1.1702722
1.1706142
1.1704466
1.17076
1.1706068
1.1708703
1.1707337
1.1699168
1.1697866
1.170036
1.1698958
1.1701622
1.1700136
1.1702878
1.1701368
1.1704168
1.1702694
1.1705675
1.170428
1.1697071
1.1695767
1.169791
1.1696469
1.1698797
1.1697221
1.1699748
1.1698075
1.1700805
1.1699122
1.1702113
1.1700596
1.1695158
1.1693947
1.1696091
1.1694694
1.1697122
1.1695504
1.1698326
1.1696544
1.1699659
1.169785
1.1700938
1.1699312
1.1690803
1.169452
1.169209
1.169593
1.169287
1.1696579
1.1693196
1.1696767
1.1693317
1.1696754
1.1693341
1.1696608
1.1691977
1.1695639
1.1693641
1.1697403
1.1694328
1.1698034
1.1694476
1.1698116
1.1694379
1.1697944
1.1694158
1.1697604
1.1692557
1.169598
1.1693018
1.1696478
1.169309
1.1696615
1.1692934
1.1696571
1.1692674
1.169636
1.1692341
1.1695999
1.1692353
1.1695708
1.1691918
1.1695411
1.1691578
1.1695179
1.169117
1.1694863
1.1690668
1.1694462
1.1690042
1.1693939
1.1692831
1.1696559
1.1691921
1.1696003
1.1691197
1.1695537
1.1690419
1.1694946
1.1689555
1.1694239
1.1688502
1.1693317
1.169443
1.169929
1.1693298
1.1699088
1.1692267
1.1698624
1.1691124
1.1697857
1.1689817
1.1696854
1.1688256
1.1695565
1.169771
1.170533
1.1696975
1.1706653
1.1695963
1.1706737
1.1694627
1.1706106
1.1693012
1.1705035
1.1691115
1.170367
1.1704135
1.1716792
1.1704846
1.1720889
1.17043
1.1722014
1.1702996
1.1721721
1.1701294
1.1720779
1.1699396
1.1719685
1.1716795
1.1736406
1.1720094
1.1743864
1.1720299
1.1745932
1.1718888
1.1745525
1.1716714
1.1744036
1.1714496
1.1742706
1.1737903
1.1764054
1.1744582
1.1775243
1.1745734
1.1778303
1.1744065
1.1777475
1.1740638
1.1774316
1.173658
1.1770455
1.1757363
1.1783464
1.1764834
1.1794052
1.176565
1.1796192
1.1763223
1.1794441
1.1759362
1.1791042
1.1755598
1.1787634
1.1760721
1.1782636
1.1766486
1.17899
1.1766635
1.1790776
1.1764702
1.1789258
1.1762333
1.1787134
1.1760062
1.1785018
1.175036
1.1771377
1.1755241
1.1776959
1.1755589
1.177762
1.175453
1.1776673
1.1753143
1.1775296
1.1751845
1.1773992
1.1753689
1.1782027
1.1760067
1.1790164
1.1761227
1.1792026
1.1760764
1.1791859
1.1759961
1.1791095
1.175934
1.179037
1.176234
1.179863
1.1770013
1.1809552
1.1772065
1.181299
1.17725
1.1814144
1.1772954
1.1814912
1.1774185
1.1816364
1.1776379
1.1820254
1.178423
1.1832543
1.178643
1.18365
1.1786995
1.1837944
1.1787754
1.1839233
1.1789286
1.1841778
1.1813509
1.1858922
1.182124
1.1869938
1.1823062
1.1872941
1.1822762
1.1873241
1.1821799
1.1872847
1.1820194
1.1872313
1.1867081
1.1907493
1.1874044
1.1915875
1.1875256
1.1917397
1.1873818
1.1916447
1.1870389
1.1913946
1.1864526
1.1908924
1.1930305
1.1955817
1.1935685
1.1959629
1.1936179
1.1959089
1.1933623
1.1956667
1.192806
1.1952459
1.1919081
1.1943925
1.1992724
1.1995268
1.1996263
1.199281
1.1995605
1.1989216
1.1991959
1.1984197
1.1985632
1.1977427
1.1975909
1.1968119
1.2031
1.2011032
1.2031512
1.2001828
1.2029906
1.1996571
1.2025866
1.1990916
1.2019445
1.1983734
1.2009805
1.1974344
1.2016674
1.1965318
1.2008647
1.1947409
1.2005221
1.1941699
1.20016
1.1937966
1.1996537
1.1933924
1.19891
1.1928601
1.198742
1.19413
1.1981669
1.1925396
1.1979223
1.192078
1.1976247
1.191828
1.1971841
1.1915478
1.1965792
1.1911623
1.1922542
1.1900026
1.1922357
1.1891413
1.1921951
1.1888879
1.1920798
1.1887468
1.1919093
1.1885683
1.19169
1.1883357
1.1847547
1.1838022
1.184892
1.1833394
1.1849908
1.1832343
1.1850889
1.1832199
1.1851928
1.1832241
1.1852916
1.1832454
1.1796541
1.1790813
1.1797449
1.1787464
1.1798756
1.1787071
1.1800655
1.178782
1.1803009
1.1789264
1.18055
1.1791188
1.176639
1.1762572
1.176683
1.176068
1.1768156
1.1760907
1.1770319
1.1762261
1.177322
1.1764547
1.1776529
1.1767466
1.1749457
1.1747077
1.1750001
1.1746886
1.1751281
1.1747718
1.1753259
1.1749323
1.1755772
1.1751572
1.1758514
1.1754064
1.1737256
1.173632
1.1738032
1.1737026
1.1739262
1.1738122
1.1740993
1.1739716
1.1743021
1.1741619
1.1745298
1.1743674
1.1726445
1.1726088
1.1727183
1.1726749
1.1728373
1.1727844
1.1730105
1.1729539
1.1732219
1.173166
1.17347
1.173407
1.1718087
1.1717529
1.1718684
1.1717913
1.1719863
1.1718962
1.1721621
1.1720712
1.1723838
1.1723037
1.1726443
1.1725728
1.1712735
1.1711621
1.1713295
1.1711895
1.1714445
1.1712896
1.171615
1.1714575
1.1718348
1.1716904
1.1720901
1.171964
1.170989
1.1708253
1.1710878
1.1708955
1.1712158
1.1710063
1.171375
1.1711596
1.1715673
1.1713595
1.17179
1.1716026
1.170794
1.1706358
1.1709894
1.1708136
1.1711273
1.1709477
1.1712683
1.171087
1.1714161
1.1712398
1.1715722
1.1714053
1.1704471
1.1703017
1.1707186
1.1705709
1.1708876
1.1707085
1.1710147
1.1708238
1.1711331
1.1709379
1.1712531
1.1710577
1.170251
1.1700912
1.1704289
1.1702661
1.1705859
1.1703991
1.1707216
1.1705176
1.1708545
1.170643
1.1709954
1.1707852
1.1693279
1.1696386
1.1693052
1.1696041
1.1692693
1.1695565
1.1692263
1.1694986
1.1691833
1.169428
1.169135
1.1693227
1.1690018
1.1690695
1.1693911
1.169723
1.1693552
1.169675
1.1693091
1.1696135
1.1692592
1.1695441
1.169209
1.1694638
1.1691506
1.1693496
1.1690076
1.1690883
1.1692082
1.1695615
1.1691835
1.1695221
1.16916
1.1694769
1.1691363
1.1694255
1.1691108
1.1693609
1.1690678
1.1692541
1.1689277
1.1689881
1.1689484
1.1693406
1.1689029
1.1692858
1.16887
1.1692279
1.1688532
1.1691722
1.1688439
1.1691086
1.1688184
1.1690025
1.1686952
1.1687312
1.1687576
1.1692448
1.1686769
1.1691585
1.168613
1.1690727
1.1685728
1.1689953
1.1685469
1.1689138
1.1685096
1.1687796
1.1683874
1.168455
1.1686906
1.1694459
1.1685688
1.1693365
1.1684661
1.1692268
1.1683937
1.1691312
1.1683363
1.1690339
1.1682513
1.1688576
1.1680576
1.1683861
1.16895
1.1702585
1.1687948
1.1701466
1.1686511
1.1700243
1.1685409
1.1699153
1.1684457
1.169809
1.1682852
1.1695961
1.1678931
1.1689127
1.1697836
1.1718943
1.1696175
1.1717961
1.169437
1.1716639
1.1692728
1.1715263
1.1691115
1.1713742
1.1688521
1.171086
1.1682046
1.1701943
1.1712874
1.174199
1.171109
1.174086
1.1708841
1.1739108
1.1706307
1.1736923
1.1703465
1.1734111
1.16995
1.1729863
1.1690995
1.1719814
1.1733805
1.1768025
1.1731241
1.1765609
1.1728041
1.1762517
1.172419
1.1758802
1.1719732
1.1754177
1.1714656
1.1748933
1.1706164
1.1740527
1.1753101
1.1785389
1.1750251
1.1782491
1.1746419
1.1778447
1.1741833
1.1773726
1.1736846
1.1768515
1.1732765
1.1764262
1.1728013
1.1760174
1.1758254
1.1783329
1.1755908
1.1780926
1.175303
1.177776
1.175009
1.1774414
1.1747534
1.1771083
1.1746521
1.1768965
1.1746013
1.1768179
1.1750734
1.1773053
1.1749212
1.177174
1.1747604
1.1770294
1.1746713
1.1768871
1.1747158
1.1767829
1.174847
1.1767587
1.1749503
1.1767255
1.1758893
1.1789796
1.1758085
1.1788538
1.1757276
1.1786931
1.1756741
1.1785562
1.1756263
1.1784279
1.1755754
1.1781917
1.1754104
1.1776601
1.1775409
1.181833
1.1776154
1.1819873
1.1776547
1.1820255
1.1776519
1.1818952
1.1775135
1.1814934
1.1771614
1.1807052
1.1763168
1.1791315
1.1790709
1.1844711
1.1792077
1.1846924
1.1793425
1.184826
1.1794628
1.1848331
1.1794817
1.1844743
1.1790893
1.1832783
1.1775648
1.1806226
1.1818441
1.1871411
1.1817565
1.1870675
1.1817309
1.1870516
1.1817445
1.1870887
1.1817008
1.1868463
1.1812499
1.1856357
1.1794629
1.1823692
1.1858776
1.1902363
1.1854312
1.1896879
1.1850934
1.1893264
1.1848343
1.1891276
1.1845065
1.1886951
1.1837315
1.1873971
1.1817725
1.1843764
1.1910167
1.1933456
1.1902302
1.1924304
1.1895734
1.1917904
1.1890473
1.1913989
1.1884406
1.1908561
1.187384
1.1897089
1.185272
1.1874247
1.1965727
1.1959175
1.1956198
1.1951191
1.1947699
1.1944833
1.1940689
1.1940398
1.1932962
1.1935514
1.1921197
1.192889
1.1898822
1.1915531
1.2000169
1.1966352
1.1990646
1.1959858
1.1981937
1.1954573
1.1974895
1.1951288
1.1967697
1.1949224
1.1958236
1.1949631
1.1940902
1.1949993
1.1982022
1.1924389
1.1975406
1.1921199
1.1969615
1.1919545
1.1965386
1.1919507
1.1961828
1.192147
1.1959945
1.1929588
1.1958225
1.195071
1.1961037
1.1908942
1.1957243
1.1907643
1.1954745
1.1908101
1.1954016
1.1910794
1.195442
1.1916611
1.1958114
1.1930291
1.196329
1.1956639
1.191538
1.1882302
1.1914164
1.1882385
1.191298
1.1883714
1.1912693
1.1887501
1.1914145
1.1896041
1.191966
1.1913577
1.1926583
1.193941
1.1853645
1.1833274
1.1854335
1.1834822
1.1853644
1.1836483
1.1852767
1.1839094
1.1853135
1.1844886
1.1854623
1.1855236
1.1854641
1.1867153
1.1807309
1.1792995
1.180917
1.1795265
1.1810345
1.1797435
1.1811729
1.1799779
1.1813206
1.1802554
1.1814614
1.1805317
1.1816845
1.180715
1.1779056
1.1769828
1.1781807
1.177253
1.1784754
1.1775313
1.1787837
1.1777982
1.1790497
1.1780103
1.1793355
1.1781747
1.1798728
1.1784722
1.1760801
1.1755993
1.1763836
1.1758477
1.1767523
1.176154
1.177089
1.1764366
1.1773671
1.1766195
1.1777024
1.1767616
1.1782985
1.1771367
1.1747568
1.1745513
1.1750732
1.1748099
1.1754253
1.1751194
1.175705
1.17536
1.1759297
1.1754917
1.1762048
1.1755927
1.1766294
1.1758789
1.1737135
1.1736213
1.1740221
1.1738923
1.1743267
1.1741734
1.1745494
1.1743654
1.1747135
1.1744647
1.1748798
1.1745133
1.1750645
1.1746313
1.1728887
1.1728021
1.1731755
1.1730671
1.1734335
1.1733135
1.173615
1.1734771
1.1737379
1.1735654
1.173835
1.173584
1.1738877
1.1735933
1.172321
1.1721889
1.1725809
1.1724363
1.1727993
1.1726526
1.1729505
1.1727985
1.1730453
1.1728817
1.1730972
1.172877
1.173092
1.17281
1.1719872
1.1718075
1.1721962
1.1720233
1.1723551
1.1721948
1.1724704
1.1723085
1.1725355
1.1723686
1.1725577
1.1723251
1.1725209
1.1721911
1.1717029
1.17154
1.1718458
1.1716841
1.1719545
1.1717957
1.1720442
1.1718732
1.1720915
1.1719033
1.1721085
1.1718377
1.1720768
1.1716896
1.1713555
1.1711585
1.1714717
1.1712739
1.1715709
1.1713729
1.1716656
1.1714552
1.1717278
1.1715024
1.1717659
1.1714622
1.1717531
1.1713406
1.1711218
1.1709102
1.1712661
1.1710539
1.171397
1.1711832
1.1715194
1.1712952
1.1716044
1.1713662
1.1716531
1.1713388
1.1716483
1.1712291
1.1688148
1.1687925
1.1686269
1.1685277
1.1682971
1.1681275
1.1680589
1.1676621
1.1688129
1.1688036
1.1686132
1.1685231
1.1682756
1.1681071
1.1680399
1.1676378
1.1687225
1.1686956
1.168517
1.1684102
1.1681827
1.1679969
1.1679702
1.1675472
1.1684992
1.1684331
1.1683141
1.1681714
1.168018
1.1678057
1.167863
1.1674069
1.168209
1.1681325
1.1680743
1.1679032
1.1678447
1.167608
1.1677544
1.1672787
1.1678596
1.1678872
1.1677939
1.1676191
1.167675
1.1674314
1.1676582
1.1671748
1.1674921
1.1680074
1.167398
1.1674072
1.1674832
1.1672628
1.1675717
1.167102
1.1674368
1.1688639
1.1670236
1.167645
1.1671579
1.1670112
1.1674382
1.1670221
1.168054
1.1704466
1.1671677
1.168644
1.1667639
1.1669783
1.167255
1.1668907
1.1695096
1.1726687
1.1682195
1.1705398
1.1670736
1.1679379
1.1671399
1.166681
1.1720289
1.1752114
1.1705862
1.1733041
1.168744
1.1703397
1.1676522
1.1677031
1.1742051
1.1764825
1.1730758
1.1751341
1.1711852
1.1726829
1.169123
1.1695523
1.1746232
1.1764177
1.1736296
1.1753953
1.1716521
1.1733039
1.1689902
1.169829
1.1747994
1.1766682
1.1736292
1.1755018
1.1714195
1.1734224
1.1685149
1.169684
1.1749549
1.1772401
1.1732341
1.1754623
1.1708275
1.1729894
1.1681968
1.1693971
1.1754132
1.1780122
1.1731074
1.1755386
1.1705991
1.1726837
1.1685924
1.1696786
1.1770022
1.1795684
1.1744297
1.1769297
1.1718983
1.1739524
1.1704502
1.1715787
1.1793694
1.1817639
1.1769931
1.1794483
1.174628
1.1767483
1.1736036
1.1749121
1.1827223
1.1849462
1.1804388
1.1828218
1.1781491
1.1803165
1.1771223
1.1785765
1.1870378
1.1892291
1.1843203
1.1866801
1.1816325
1.183811
1.1801344
1.1815551
1.1915654
1.1936947
1.188149
1.1905014
1.1847511
1.1868761
1.1827091
1.1838213
1.1948316
1.1964161
1.1911461
1.1934447
1.1872298
1.1890723
1.1852727
1.1858383
1.195652
1.1973135
1.192192
1.1945547
1.1885205
1.1899626
1.1870804
1.1874389
1.1919662
1.1948135
1.1894345
1.1921075
1.1877367
1.1888334
1.1869496
1.1878493
1.184981
1.1867525
1.1848173
1.1857692
1.1859448
1.1860965
1.1857472
1.187054
1.1821708
1.1809948
1.1834529
1.1821361
1.1850247
1.1844656
1.1845206
1.1859851
1.1808595
1.1793278
1.182459
1.181159
1.1840809
1.1837548
1.1835527
1.1853026
1.1792975
1.1780599
1.1808188
1.1798123
1.1823989
1.1823738
1.1822405
1.1840246
1.1773675
1.1766077
1.1786386
1.1780692
1.1801115
1.1803239
1.1806161
1.1822347
1.1754722
1.1750901
1.1764298
1.1762383
1.1777383
1.1781548
1.1786997
1.1802349
1.1741168
1.1738855
1.1748025
1.1747927
1.1758231
1.176321
1.1768327
1.1782055
1.1732661
1.1730098
1.1738307
1.1737777
1.174633
1.1750295
1.17543
1.1765467
1.1726981
1.1723572
1.1732467
1.1730684
1.173959
1.1741603
1.1745982
1.1754146
1.1722823
1.1718734
1.1728247
1.1725451
1.1735071
1.1735362
1.1740798
1.1746227
1.1719747
1.1715422
1.1724901
1.1721678
1.1731535
1.1730791
1.1737081
1.1740507
1.171873
1.1714382
1.1723714
1.1720439
1.1730198
1.1729143
1.1735666
1.1738374
1.1680085
1.168382
1.1680058
1.1678407
1.168905
1.1687879
1.1680936
1.1684413
1.1680091
1.1678354
1.1689017
1.1687738
1.168233
1.1685588
1.1679971
1.1678129
1.1688887
1.1687512
1.1683855
1.1686932
1.1679576
1.1677677
1.1688545
1.1687122
1.1685526
1.168837
1.1679096
1.1677095
1.1687878
1.1686361
1.1686566
1.1689097
1.1678565
1.1676373
1.1686918
1.1685177
1.16871
1.1689286
1.167801
1.1675585
1.1685603
1.1683369
1.1687453
1.1689225
1.1677648
1.1674934
1.1683873
1.1680972
1.1687635
1.1688851
1.1677541
1.1674478
1.1681882
1.1678345
1.1687657
1.168798
1.1677601
1.1674161
1.1679935
1.167592
1.168772
1.1686747
1.1677335
1.167344
1.167842
1.1674053
1.1687303
1.1684956
1.1676283
1.1672349
1.1676719
1.1672571
1.1685494
1.1682418
1.1675227
1.1671791
1.1674781
1.1670572
1.168439
1.1680711
1.1676319
1.1672655
1.1671115
1.1668738
1.1684866
1.1681219
1.1679257
1.1675597
1.1670946
1.1669075
1.1686269
1.1683086
1.1680578
1.1677316
1.1667226
1.1666822
1.1687401
1.1684337
1.1680883
1.1678127
1.1661874
1.1663345
1.1689115
1.1685709
1.1682223
1.168002
1.1660666
1.1665039
1.1690534
1.1686943
1.1688604
1.1687026
1.1675309
1.167994
1.1689939
1.1686774
1.1698963
1.169652
1.169729
1.1698612
1.1685152
1.1683542
1.1694971
1.169273
1.1699283
1.1697217
1.1679425
1.1679702
1.167899
1.1678874
1.1692246
1.1687548
1.1677018
1.1678201
1.1665235
1.1665711
1.1685515
1.1680521
1.1679267
1.1679724
1.1661774
1.1661585
1.1684512
1.1681445
1.1684071
1.168262
1.166889
1.1668091
1.1686701
1.16862
1.1685664
1.1682565
1.1679426
1.1677956
1.168903
1.1690125
1.16837
1.1680719
1.1678463
1.1678331
1.1689713
1.1691562
1.1682385
1.167964
1.1676651
1.1676801
1.1690144
1.1692211
1.1681377
1.1678715
1.1675735
1.1675513
1.1690509
1.1692417
1.1680754
1.1678126
1.1674977
1.1674546
1.1690612
1.1692176
1.1680634
1.1678098
1.1674392
1.16737
1.1690396
1.1691547
1.1680811
1.1678432
1.1674158
1.1673341
1.1690116
1.1690589
1.168102
1.1678774
1.1674168
1.1673297
1.1689958
1.1689439
1.1681219
1.1679022
1.1674387
1.1673347
1.1689913
1.1688236
1.1681352
1.167917
1.1674654
1.1673369
1.1689913
1.1687417
1.1681376
1.1679206
1.1674826
1.1673395
1.1689971
1.1687291
1.1678087
1.168462
1.1684709
1.168779
1.1687438
1.168504
1.1683593
1.1695592
1.1693581
1.1693551
1.1690072
1.1685644
1.1678191
1.1684525
1.1685033
1.1688285
1.1688133
1.1685864
1.1683851
1.1695702
1.1694124
1.1694241
1.1690858
1.1686494
1.1677816
1.1684701
1.1686124
1.1689854
1.1689928
1.1687702
1.1683893
1.1696776
1.1696212
1.1696563
1.1692999
1.168843
1.1676418
1.1684358
1.1687186
1.169195
1.1692534
1.1690491
1.1682744
1.1697534
1.1698748
1.1700304
1.1696868
1.1692009
1.1674637
1.1682987
1.1687421
1.1693507
1.1694957
1.169347
1.1680993
1.1697176
1.1700305
1.1703208
1.1700239
1.1695617
1.1672953
1.1680981
1.1686744
1.1693929
1.1696225
1.1695274
1.167938
1.1696278
1.1700904
1.1704649
1.1702224
1.1697877
1.1671507
1.1678786
1.1685526
1.1693647
1.1696738
1.1696397
1.1678027
1.1695544
1.1701351
1.1705762
1.1703928
1.169996
1.1670242
1.1676241
1.1683779
1.1692915
1.1696985
1.1697407
1.1676853
1.1694632
1.1701752
1.1707057
1.1705951
1.1702613
1.1669229
1.1673774
1.1681615
1.1691691
1.1697029
1.1698519
1.1675745
1.1692948
1.1701704
1.1708367
1.1708438
1.1706036
1.1668639
1.1672059
1.1679414
1.1690259
1.1696978
1.1699844
1.1674542
1.1690856
1.1701608
1.1710056
1.1711638
1.1710454
1.1668671
1.1671393
1.1677299
1.1688514
1.1696551
1.1700966
1.1673413
1.1689504
1.1702013
1.1712221
1.1715388
1.1715592
1.166939
1.1670583
1.1675124
1.1686086
1.1694948
1.1700724
1.1672765
1.1688236
1.1702032
1.1713607
1.1717608
1.1718521
1.1670554
1.1669513
1.1672996
1.1682814
1.1692206
1.1699008
1.167272
1.1686377
1.170067
1.1712987
1.1718336
1.1719396
1.167207
1.1669038
1.1671319
1.1679312
1.1688778
1.1696548
1.1673333
1.1683552
1.1697382
1.1710585
1.1718125
1.1720568
1.1673759
1.1670023
1.1670687
1.1677088
1.1685375
1.1693753
1.1674598
1.1681824
1.1693597
1.1707666
1.1717378
1.1722675
1.1675655
1.1671788
1.1671084
1.1675623
1.1683224
1.1691166
1.1676222
1.1680669
1.1690025
1.1704636
1.1716462
1.17245
1.1677676
1.1674099
1.1672767
1.167546
1.1682057
1.1690113
1.1678148
1.1680871
1.1689099
1.1702497
1.1716227
1.1727137
1.1679844
1.1676746
1.167508
1.1676018
1.1681502
1.1689775
1.1680331
1.1682281
1.1689358
1.1701397
1.1716985
1.1730976
1.1682075
1.1679648
1.1677725
1.167713
1.1681735
1.169007
1.1682684
1.1684511
1.1690578
1.1702122
1.1719119
1.1736199
1.1684368
1.1682595
1.1680452
1.1678462
1.1682621
1.1691157
1.1684899
1.1687049
1.1692919
1.1704618
1.1722726
1.1742814
1.1686821
1.1685796
1.1683009
1.1679636
1.1683411
1.169218
1.1686775
1.1689587
1.1695383
1.1707192
1.1726286
1.1748595
1.168971
1.1689073
1.1684996
1.1680383
1.168375
1.1692637
1.1688096
1.1691709
1.1697421
1.170896
1.1728461
1.1752185
1.1692019
1.1691469
1.1685873
1.1680115
1.1682894
1.1691347
1.1688506
1.1693143
1.1697988
1.1707948
1.1725765
1.1748167
1.1692843
1.1692516
1.1686056
1.1679247
1.168127
1.1688822
1.1687847
1.1693359
1.1697137
1.1704851
1.1719681
1.1738433
1.1692316
1.1692441
1.168603
1.1678331
1.1678991
1.1685407
1.1686503
1.1692126
1.1694788
1.1700111
1.1711643
1.1726664
1.1690839
1.1691243
1.1685862
1.1678009
1.1677224
1.1682362
1.1684867
1.1689482
1.1691216
1.1694922
1.1703601
1.1715418
1.1688791
1.1689164
1.1685297
1.1677966
1.1675634
1.1679449
1.1683238
1.168625
1.1687271
1.1690052
1.1696332
1.1705661
1.1686814
1.1686761
1.1684132
1.1677994
1.1675042
1.1677791
1.1682066
1.1683832
1.1684051
1.1685965
1.1690455
1.1697995
1.1685392
1.1684686
1.1682511
1.1677813
1.167503
1.1676985
1.168149
1.1682178
1.1681684
1.1683118
1.1686568
1.1692908
1.1684535
1.1683346
1.1681003
1.1677631
1.1675389
1.1676819
1.1681401
1.1681325
1.1680147
1.16814
1.1684516
1.1690089
1.168423
1.1682789
1.1680021
1.1677656
1.1676118
1.1677171
1.1681712
1.1681354
1.1679653
1.1680796
1.1683722
1.1688613
1.1684463
1.1683073
1.1680017
1.1678142
1.1677004
1.1677827
1.1682412
1.1682155
1.1680235
1.1681151
1.1683585
1.1687703
1.1685172
1.1684125
1.1680815
1.167881
1.1677626
1.167828
1.1683412
1.1683484
1.168122
1.1681535
1.1683272
1.1686576
1.1686107
1.1685021
1.1681124
1.1678709
1.1677514
1.1678285
1.1684512
1.1684323
1.1681409
1.1681107
1.168228
1.1685056
1.1686309
1.1684599
1.1680165
1.1677863
1.1676972
1.1678076
1.1684702
1.1683886
1.1680676
1.1680219
1.1681269
1.1684011
1.1685757
1.1684159
1.1679681