/*--------------------------------*- C++ -*----------------------------------*\
| =========                 |                                                 |
| \\      /  F ield         | OpenFOAM: The Open Source CFD Toolbox           |
|  \\    /   O peration     | Version:  2206                                  |
|   \\  /    A nd           | Website:  www.openfoam.com                      |
|    \\/     M anipulation  |                                                 |
\*---------------------------------------------------------------------------*/
FoamFile
{
    version     2.0;
    format      ascii;
    arch        "LSB;label=32;scalar=64";
    class       volScalarField;
    location    "100";
    object      T;
}
// * * * * * * * * * * * * * * * * * * * * * * * * * * * * * * * * * * * * * //

dimensions      [0 0 0 1 0 0 0];

internalField   nonuniform List<scalar> 
50904
(
293.38341
293.47902
292.43327
292.77023
293.13819
293.19894
292.26731
292.56376
292.60392
292.59603
291.87864
292.12793
291.96594
291.8739
291.34583
291.57698
291.39178
291.23845
290.83527
291.05165
290.99158
290.79787
290.45815
290.62998
290.68295
290.43523
290.13184
290.23432
290.4108
290.09299
289.82474
289.84836
290.16557
289.77027
289.55912
289.51936
289.94242
289.48875
289.38554
289.32405
289.71234
289.26026
289.30926
289.32713
289.38313
288.89983
289.12485
289.41161
289.04809
288.35324
288.26724
288.64729
288.96764
287.97137
287.15375
287.25019
289.02664
287.78299
285.83099
285.64919
289.23643
287.74934
284.71115
284.14009
289.4889
287.89162
283.82323
282.93766
289.83921
288.2746
283.12055
281.80178
290.12209
288.72202
282.34873
280.74708
290.16976
288.91324
281.22913
279.35811
290.00347
288.7307
280.10268
277.85056
289.76108
288.29758
279.1579
276.60909
289.93175
288.37486
279.34646
276.88115
290.50795
288.98655
280.87114
278.90083
291.48534
290.11082
282.93579
281.39322
292.71858
291.58177
285.11018
283.86941
293.9631
293.09151
287.22031
286.1944
295.02714
294.40743
289.13718
288.26279
295.87933
295.45457
290.75397
289.98664
296.49643
296.20897
292.04415
291.33633
296.90302
296.71439
293.04949
292.38451
297.16749
297.06164
293.87809
293.28771
297.35361
297.32156
294.66682
294.20044
297.52443
297.54494
295.43158
295.08193
297.66819
297.71915
295.97352
295.71025
297.72167
297.78493
296.15623
295.92892
292.65187
293.08752
293.15388
293.56348
293.22187
293.55335
293.22433
293.4757
293.21008
293.45007
293.20267
293.46021
293.2185
293.48723
292.54892
292.93901
293.09694
293.47331
293.15649
293.46003
293.12036
293.34046
293.07607
293.26716
293.06147
293.248
293.08366
293.26956
292.33143
292.69355
293.04108
293.41756
293.15347
293.48934
293.1277
293.40293
293.08372
293.32374
293.06833
293.28394
293.09547
293.28918
292.0734
292.46544
293.09552
293.51283
293.32859
293.71541
293.35468
293.70025
293.32258
293.63891
293.28803
293.57744
293.27652
293.53773
291.8279
292.24237
293.11432
293.54843
293.4711
293.87213
293.57395
293.93828
293.5767
293.91596
293.54765
293.86459
293.5211
293.81555
291.56271
291.95214
293.00727
293.41527
293.45372
293.83934
293.62148
293.97331
293.67152
293.99973
293.67875
293.99073
293.68332
293.98101
291.25387
291.57027
292.75911
293.08404
293.2442
293.56818
293.45975
293.76859
293.56657
293.86515
293.64077
293.93265
293.72456
294.00975
290.94713
291.14859
292.43674
292.59224
292.89829
293.07647
293.14904
293.34595
293.33079
293.54011
293.50828
293.72447
293.72087
293.93784
290.75652
290.82632
292.21156
292.08714
292.55133
292.44292
292.79881
292.74211
293.05795
293.03737
293.3653
293.36671
293.74942
293.76128
290.8622
290.84484
292.39644
291.92964
292.45609
291.94448
292.59388
292.16186
292.88975
292.52108
293.32794
293.00035
293.91082
293.60507
291.58045
291.65104
293.75283
293.04207
293.49364
292.60451
293.42891
292.64416
293.69577
293.01782
294.20808
293.61921
294.97079
294.4059
293.07194
293.45939
297.02238
296.42762
296.72183
295.77651
296.40541
295.59492
296.51298
295.89482
296.93433
296.4835
297.57926
297.26645
293.55694
294.39725
300.36384
300.10386
301.0953
300.44244
301.21343
300.33202
301.28886
300.34466
301.45931
300.53009
301.72888
300.84392
292.01738
292.82124
299.61385
299.81238
301.07135
300.65087
301.26856
300.52414
301.33528
300.40674
301.43527
300.37703
301.5867
300.41567
289.55961
290.19349
296.99344
297.25096
298.97713
298.49133
299.25581
298.40853
299.34934
298.27205
299.47722
298.19626
299.65525
298.1782
286.61055
287.06249
293.44283
293.68796
295.87514
295.33768
296.34899
295.33873
296.54109
295.21278
296.75036
295.17543
297.02136
295.24242
283.60882
283.73858
288.99776
289.01105
291.31371
290.43099
291.67947
290.19839
291.79792
289.93522
292.00961
289.89624
292.36152
290.07624
280.55505
280.33508
283.9295
283.46471
285.44316
283.98393
285.3655
283.30659
285.25588
282.88115
285.40472
282.8585
285.81129
283.16473
277.82951
277.03985
278.60066
277.38224
278.57546
276.46624
277.80874
275.37316
277.43257
274.92977
277.51332
275.02207
277.95639
275.49214
275.09485
273.68021
273.2537
271.14413
271.4994
268.82342
270.01265
267.53015
269.40352
267.2546
269.44061
267.56587
269.91721
268.23609
272.20498
270.15449
268.30018
265.58709
265.50964
262.85579
263.81064
261.96224
263.20325
262.05244
263.2565
262.58116
263.72208
263.34858
270.28399
267.88182
265.25461
262.8625
262.52591
261.11401
261.36434
261.08915
261.10765
261.55586
261.34953
262.22209
261.86675
262.96652
270.66985
268.80467
266.45879
265.23681
264.75855
264.07414
264.08751
264.13487
263.97836
264.59562
264.18648
265.14303
264.59631
265.71046
274.04385
273.15202
272.01155
271.76009
271.56709
271.39697
271.49881
271.48828
271.57801
271.7373
271.75686
272.03162
272.025
272.35248
277.5909
277.47303
277.25426
277.93668
277.87853
278.4725
278.36547
278.82254
278.62879
279.04508
278.77257
279.19559
278.86716
279.31024
280.59665
280.94349
281.15056
282.39486
282.18856
283.36699
282.8706
283.84267
283.16263
284.02997
283.22309
284.06568
283.1545
284.01296
283.08761
283.69083
284.09361
285.57991
285.1777
286.64082
285.82223
287.10023
286.05771
287.22391
286.0311
287.16432
285.84256
286.99032
285.13415
285.86264
286.36367
287.91576
287.42215
288.93022
287.95529
289.29839
288.10831
289.34581
288.01344
289.21493
287.75899
288.97001
286.75835
287.53196
288.01941
289.58901
289.0707
290.56847
289.52004
290.87132
289.61819
290.88345
289.48463
290.72443
289.19712
290.45008
288.01246
288.77133
289.12164
290.69542
290.1375
291.63863
290.5152
291.8971
290.57616
291.89935
290.42495
291.73686
290.12863
291.456
289.00573
289.72167
289.82949
291.38054
290.72382
292.22788
291.00313
292.42026
291.0126
292.39758
290.84341
292.22745
290.55011
291.94492
289.92599
290.58527
290.34426
291.83166
290.99987
292.47265
291.12389
292.54239
291.0405
292.44787
290.8324
292.2421
290.54572
291.95098
290.95487
291.57671
290.92018
292.27219
291.20651
292.56216
291.09888
292.4377
290.89385
292.22659
290.63493
291.95701
290.35058
291.64851
292.02892
292.60795
291.65391
292.87423
291.65743
292.85081
291.3372
292.51133
291.03361
292.19702
290.74848
291.88842
290.47749
291.5836
292.84774
293.39277
292.26312
293.42664
292.22661
293.35129
291.92547
293.00975
291.65484
292.72576
291.38965
292.44597
291.11059
292.14765
293.15731
293.67621
292.49497
293.64561
292.45167
293.56889
292.20281
293.27989
292.02519
293.09596
291.847
292.92057
291.60445
292.68022
293.26007
293.53113
293.33158
293.60109
293.41524
293.68012
293.56618
293.8061
293.8439
293.99997
294.26302
294.2722
293.14872
293.33253
293.2561
293.43363
293.40222
293.56439
293.62101
293.75116
293.93227
294.00248
294.36109
294.33541
293.17747
293.34739
293.31658
293.46041
293.50722
293.6167
293.77975
293.84821
294.13646
294.16054
294.58522
294.56539
293.30839
293.53724
293.40394
293.59802
293.56478
293.71381
293.85299
293.94417
294.29782
294.33501
294.87469
294.87869
293.52454
293.79312
293.59197
293.83034
293.72876
293.9229
294.01756
294.14683
294.53758
294.59807
295.2408
295.26924
293.71772
293.99777
293.81385
294.0697
293.9899
294.20251
294.35141
294.49232
294.98628
295.05926
295.8001
295.84892
293.85605
294.12914
294.05293
294.30208
294.35323
294.5524
294.89838
295.01366
295.73423
295.78362
296.64462
296.68109
294.01406
294.22165
294.38157
294.56182
294.89756
295.02216
295.75567
295.78503
296.86158
296.81455
297.81327
297.77045
294.2633
294.27206
294.8677
294.85239
295.69981
295.62455
297.00933
296.82689
298.38158
298.14964
299.2516
299.06435
294.69482
294.39292
295.62606
295.28017
296.89368
296.46868
298.69063
298.22504
300.19839
299.77226
300.86779
300.51201
295.98398
295.44352
297.15362
296.63367
298.63312
298.15887
300.53384
300.12008
302.00451
301.54951
302.46827
301.94707
298.45369
298.27514
299.38245
299.37866
300.48011
300.61034
301.92718
301.93476
303.16794
302.79534
303.45549
302.89027
302.11115
301.27948
302.537
301.74055
303.00617
302.21336
303.46771
302.65368
303.68347
302.87178
303.63189
302.82025
301.79191
300.49351
302.01606
300.56688
302.22261
300.63705
302.3381
300.66374
302.27665
300.56579
302.08358
300.38072
299.88076
298.1779
300.10481
298.13285
300.2644
298.02715
300.26835
297.7788
300.01921
297.28782
299.52823
296.57944
297.36727
295.38075
297.76284
295.52767
298.12835
295.65192
298.34339
295.66405
298.25973
295.35075
297.81166
294.51894
292.86713
290.43539
293.54478
290.92128
294.31877
291.5133
295.05214
292.20736
295.54599
292.72267
295.65644
292.61811
286.47695
283.75398
287.45707
284.58441
288.68959
285.65717
290.05003
287.09756
291.28545
288.59101
292.16849
289.49993
278.77815
276.33836
280.0055
277.48476
281.63756
278.99275
283.66184
281.18738
285.76115
283.74911
287.57571
285.83365
270.81919
269.28665
272.15291
270.63411
273.99832
272.41168
276.6015
275.21602
279.60756
278.86678
282.51654
282.44316
264.57584
264.41969
265.77241
265.73754
267.48616
267.43587
270.26251
270.20079
273.82477
274.14564
277.53989
278.43173
262.66994
263.89631
263.73877
264.98137
265.15934
266.3523
267.44822
268.6277
270.86685
272.11365
274.76632
276.14179
265.2769
266.42878
266.21119
267.2843
267.48021
268.34542
269.60068
270.09963
272.99773
273.10247
276.57704
276.67808
272.46508
272.79193
273.10818
273.36191
274.07471
274.14386
275.79114
275.52978
278.20863
277.71768
280.27712
280.03696
278.98143
279.44534
279.2007
279.64837
279.62872
279.99945
280.48186
280.75474
281.63125
281.91627
282.50203
283.0805
282.99428
283.89183
282.82674
283.75592
282.79659
283.66682
283.08402
283.78831
283.60067
284.24135
284.01442
284.84119
285.49596
286.69215
285.03434
286.30253
284.6313
285.85932
284.59138
285.53584
284.8825
285.60606
285.19558
285.9523
287.32847
288.58349
286.75415
288.08689
286.1806
287.49246
285.9193
286.93908
286.03531
286.77181
286.27663
286.93745
288.72958
290.02396
288.12861
289.48489
287.51946
288.83823
287.1542
288.19421
287.12059
287.87529
287.26547
287.88892
289.65904
291.01786
289.0879
290.47698
288.51449
289.83761
288.11771
289.18661
287.98436
288.78795
288.04424
288.69198
290.10496
291.5101
289.60535
291.00062
289.11236
290.41619
288.73781
289.82189
288.56096
289.41517
288.57656
289.2784
290.15263
291.53435
289.76402
291.09542
289.38506
290.6173
289.07127
290.13667
288.89432
289.77186
288.88942
289.63802
290.00983
291.25961
289.72367
290.90598
289.46126
290.55209
289.24199
290.21386
289.10049
289.95213
289.06476
289.82571
290.17899
291.23835
289.93734
290.94742
289.70091
290.64988
289.4989
290.37347
289.34173
290.14065
289.24621
289.96709
290.77492
291.7846
290.47917
291.45599
290.1792
291.10708
289.91351
290.77581
289.7022
290.49151
289.56509
290.27201
291.24255
292.31437
290.88144
291.9396
290.49335
291.5074
290.12593
291.05587
289.84496
290.67049
289.6988
290.42347
294.58862
294.46989
294.67832
294.53089
294.67498
294.60512
294.71075
294.72464
294.81197
294.89085
294.99612
295.11968
294.68559
294.57061
294.78188
294.63618
294.85051
294.75199
294.96492
294.92004
295.11448
295.11363
295.28917
295.32615
294.97709
294.90562
295.21051
295.11066
295.39746
295.28937
295.58106
295.48601
295.75909
295.69889
295.89983
295.89207
295.3279
295.30522
295.63103
295.5865
295.86699
295.82066
296.10379
296.07962
296.32783
296.33948
296.50101
296.53994
295.75534
295.77758
296.11318
296.12093
296.40401
296.41585
296.6775
296.72453
296.90808
297.00171
297.06832
297.19964
296.35801
296.41355
296.76285
296.80146
297.07566
297.12357
297.34567
297.43453
297.55722
297.69498
297.69083
297.86459
297.19613
297.25381
297.59679
297.64469
297.88742
297.94751
298.12098
298.21757
298.2839
298.42405
298.36739
298.54202
298.26841
298.26799
298.60749
298.6071
298.84395
298.85866
299.01288
299.0645
299.10339
299.20334
299.11305
299.26469
299.53713
299.39462
299.77952
299.63619
299.95274
299.83407
300.05472
299.98864
300.06756
300.07282
299.98556
300.08373
300.98753
300.63505
301.12605
300.76933
301.21408
300.91201
301.22756
301.01961
301.14696
301.05429
300.95132
301.00519
302.43326
301.84649
302.4305
301.83614
302.3907
301.86972
302.28935
301.89094
302.10863
301.8704
301.78039
301.77263
303.39316
302.71059
303.32977
302.6322
303.22818
302.59624
303.06844
302.55109
302.82571
302.46865
302.42988
302.31008
303.60276
302.81391
303.5712
302.83225
303.47818
302.8179
303.32064
302.77485
303.08714
302.69259
302.74798
302.53674
301.98674
300.29745
301.9075
300.25679
301.81025
300.24734
301.66483
300.24908
301.44218
300.26187
301.13421
300.29402
299.07357
295.98192
298.70378
295.56754
298.41274
295.34566
298.05
295.16758
297.51995
295.00088
296.85855
294.86033
297.28583
293.63568
296.83041
292.99161
296.41733
292.56296
295.83036
292.11172
294.8686
291.432
293.58319
290.26808
295.50438
292.05675
295.31574
291.60348
295.0946
291.29344
294.71404
290.93832
294.0052
290.30278
292.97821
288.96376
292.55317
289.51318
292.73999
289.41952
292.82705
289.38192
292.869
289.339
292.80993
289.20608
292.53969
288.76455
288.5765
286.50694
289.15113
286.77003
289.51547
286.97652
289.96872
287.24408
290.57773
287.67217
291.05474
288.23932
284.31806
284.12064
285.23683
284.78727
285.86408
285.22798
286.64681
285.78697
287.65805
286.51165
288.68894
287.23338
279.99344
280.77764
281.09891
281.66805
281.84475
282.22345
282.82805
282.95577
284.19212
283.97759
285.77879
285.15504
277.35147
278.50846
278.29054
279.33638
278.98989
279.87642
279.99144
280.63564
281.48971
281.78345
283.37287
283.25907
278.58023
278.68715
279.31629
279.2739
280.00994
279.71966
281.01592
280.44305
282.33534
281.57262
283.71952
283.00655
281.33921
281.2828
281.84589
281.70143
282.33399
282.0521
282.94337
282.57474
283.56766
283.3297
284.14435
284.17708
282.97682
283.83139
283.23529
284.17189
283.45426
284.38252
283.7005
284.62891
283.96347
284.90486
284.24807
285.15969
284.29811
285.3598
284.47605
285.64604
284.58937
285.75674
284.70289
285.83774
284.82788
285.91194
284.9996
285.98748
285.43944
286.32265
285.60022
286.54916
285.68338
286.61021
285.75429
286.62841
285.82683
286.6351
285.93089
286.64801
286.51737
287.19201
286.69429
287.36878
286.7596
287.41222
286.79001
287.41296
286.80949
287.39344
286.84395
287.36571
287.48692
288.06416
287.67171
288.21737
287.70732
288.22807
287.68786
288.17883
287.64465
288.1
287.58872
288.00246
288.20626
288.7914
288.33588
288.88376
288.32657
288.83232
288.26514
288.7231
288.17632
288.58672
288.0664
288.43304
288.68908
289.32401
288.76243
289.35876
288.71118
289.24862
288.61739
289.08489
288.50123
288.90039
288.37133
288.71015
288.95935
289.6449
289.00028
289.6423
288.93124
289.50372
288.82447
289.31006
288.70049
289.09575
288.57245
288.89252
289.06832
289.76541
289.05813
289.7058
288.97292
289.55395
288.87394
289.37505
288.77211
289.17887
288.6809
288.98545
289.16632
289.80381
289.11619
289.6678
289.03408
289.50578
288.95944
289.35651
288.89296
289.21409
288.84239
289.0879
289.45374
290.07394
289.38813
289.93647
289.29935
289.77754
289.21658
289.62603
289.14071
289.4788
289.08014
289.34656
289.62815
290.27313
289.62578
290.23265
289.55165
290.1078
289.45137
289.93975
289.34154
289.74559
289.241
289.55217
295.19871
295.33301
295.39706
295.52733
295.59427
295.71031
295.77137
295.87001
295.91341
296.00119
296.03617
296.12672
296.18082
296.31069
295.43004
295.48927
295.5688
295.64214
295.70319
295.78332
295.82488
295.90652
295.93335
296.01619
296.03932
296.13319
296.16883
296.30675
295.9417
295.97549
295.9634
296.03029
295.97962
296.0704
296
296.10707
296.0357
296.15459
296.09294
296.22898
296.17526
296.35931
296.53434
296.60638
296.48918
296.60753
296.39682
296.5531
296.29606
296.47673
296.23393
296.42971
296.21592
296.42889
296.22356
296.48217
297.08681
297.24809
297.00637
297.21562
296.8426
297.09679
296.64757
296.91988
296.47684
296.76549
296.36498
296.67513
296.28656
296.63605
297.6835
297.89217
297.53738
297.83034
297.26693
297.64297
296.98227
297.37251
296.72907
297.12659
296.51477
296.94446
296.33965
296.79643
298.32861
298.54791
298.11814
298.47093
297.72734
298.23097
297.32661
297.85666
296.99499
297.50824
296.68828
297.2388
296.40526
296.97906
299.01345
299.2407
298.71974
299.13407
298.21887
298.8419
297.70735
298.38506
297.28963
297.93276
296.90057
297.56101
296.52175
297.19781
299.77616
300.01751
299.34128
299.84562
298.73562
299.46764
298.15395
298.93604
297.66447
298.40207
297.20742
297.93442
296.78113
297.49043
300.59242
300.86554
299.97225
300.58939
299.26917
300.10288
298.66165
299.49149
298.13881
298.89177
297.65035
298.35676
297.20743
297.87605
301.26832
301.56411
300.56481
301.19916
299.81467
300.6642
299.17398
300.02568
298.62127
299.35998
298.11463
298.7612
297.6352
298.24965
301.94899
302.0564
301.33111
301.63945
300.5459
301.07119
299.74179
300.42688
299.03954
299.74563
298.46659
299.09775
297.93961
298.54559
302.38404
302.30549
301.93866
301.95196
301.32866
301.38692
300.5451
300.72652
299.65824
300.10425
298.87538
299.53856
298.25216
299.00168
300.83537
300.33843
300.55647
300.38868
300.30223
300.38922
300.08395
300.24199
299.84684
299.98448
299.47042
299.63974
298.8581
299.30229
296.43415
294.89003
296.27596
295.3087
296.42516
296.20789
296.99325
297.33262
297.99932
298.23694
298.76139
298.57826
298.88617
298.70455
292.60276
289.32025
291.88601
288.96138
291.44421
289.16732
291.39453
290.10592
292.18579
292.10167
294.48338
294.69166
297.20054
296.70093
292.02082
287.67467
291.08942
286.70761
290.20215
285.93503
289.33816
285.33166
288.70826
285.39432
289.46182
287.51129
293.28147
292.9384
292.11582
288.14062
291.54934
287.45646
290.91485
286.73615
290.23546
285.9284
289.58656
285.25924
289.66773
286.1246
291.96067
291.23468
291.19501
288.35316
291.1361
288.18494
290.9508
287.87677
290.72155
287.48399
290.55715
287.16024
290.88566
287.8536
292.49705
291.34353
289.28592
287.60299
289.63333
287.77242
289.83911
287.84777
290.02406
287.91475
290.32368
288.07474
290.98369
288.70817
292.44972
290.89135
286.84734
285.90308
287.56131
286.39804
288.07816
286.77748
288.60571
287.19053
289.32536
287.77782
290.3312
288.65431
291.83036
290.3353
284.72947
284.30054
285.64768
285.01778
286.3091
285.55
287.0302
286.13445
288.03527
286.95849
289.23909
288.01498
290.74072
289.59232
284.50107
283.95082
285.05473
284.63659
285.61803
285.19181
286.38957
285.8306
287.42192
286.70227
288.4965
287.68172
289.63707
288.8945
284.50368
284.64919
284.90239
285.03855
285.52501
285.50523
286.50833
286.16767
287.42853
286.94133
288.10149
287.64828
288.78227
288.42272
284.51032
285.31071
284.97866
285.55456
285.9813
286.09654
286.85324
286.72445
287.32987
287.12646
287.72017
287.51012
288.12083
287.97802
285.2541
286.05604
285.76167
286.20479
286.45962
286.55535
286.85601
286.84363
287.11594
287.03411
287.37602
287.25281
287.63261
287.54113
286.10824
286.66699
286.44281
286.72889
286.76978
286.8801
286.96034
286.99291
287.12138
287.07041
287.27675
287.16333
287.39078
287.29244
286.91743
287.33536
287.02551
287.30067
287.12541
287.27815
287.21551
287.2759
287.32324
287.2834
287.41245
287.29789
287.41253
287.29707
287.54103
287.90735
287.50237
287.78111
287.50217
287.66632
287.54764
287.6115
287.63741
287.60107
287.71065
287.59768
287.67507
287.53306
287.97105
288.29951
287.88415
288.13897
287.84917
288.00293
287.88592
287.9389
287.97708
287.94215
288.06684
287.95524
288.0697
287.89169
288.26957
288.56436
288.17801
288.40345
288.14402
288.28022
288.19069
288.23598
288.28845
288.26073
288.40016
288.30226
288.45239
288.26638
288.47892
288.75491
288.40061
288.60888
288.39358
288.51017
288.45365
288.49707
288.55735
288.54373
288.68819
288.61753
288.77687
288.61908
288.63092
288.86803
288.59961
288.76415
288.62138
288.72061
288.6861
288.734
288.79409
288.79865
288.94156
288.9043
289.05993
288.94517
288.82262
289.01698
288.81079
288.95166
288.84102
288.93937
288.90298
288.96588
289.01274
289.0433
289.17599
289.17601
289.32552
289.25691
289.05015
289.26784
289.02413
289.18787
289.04058
289.16432
289.08564
289.17498
289.18532
289.24274
289.36221
289.39041
289.56055
289.51974
289.18097
289.43166
289.12653
289.31248
289.12175
289.26104
289.15022
289.25545
289.24055
289.31418
289.42482
289.46444
289.64884
289.61399
296.22542
296.419
296.15102
296.4129
296.05584
296.33582
296.23773
296.43423
296.20375
296.40294
296.11426
296.38249
296.0043
296.29408
296.1577
296.3811
296.18206
296.42716
296.04006
296.35545
295.87744
296.2101
295.95745
296.22533
296.19219
296.50286
295.9957
296.35839
295.78609
296.14493
295.76712
296.08519
296.20873
296.58727
295.95997
296.36146
295.67633
296.07838
295.58347
295.93332
296.20739
296.66297
295.89189
296.3465
295.54031
295.9759
295.3512
295.74627
296.19779
296.75241
295.80507
296.31905
295.38266
295.83274
295.09354
295.51282
296.24735
296.88554
295.78786
296.33186
295.30229
295.71468
294.92489
295.31614
296.47816
297.1302
295.96888
296.49906
295.36695
295.75964
294.84194
295.24285
296.87046
297.5066
296.27654
296.8317
295.50062
295.96492
294.78964
295.25114
297.24484
297.87504
296.56629
297.17355
295.64806
296.20174
294.76321
295.29682
297.51141
298.15373
296.79649
297.43808
295.81079
296.40717
294.8154
295.35952
297.7802
298.53564
297.04064
297.73988
296.02236
296.62847
294.97196
295.45069
298.26597
298.92535
297.43194
298.21079
296.34888
297.00351
295.25683
295.64385
298.66867
298.68338
298.00074
298.42467
296.87588
297.47861
295.70935
296.07551
298.11016
297.67014
298.22345
298.14666
297.58086
297.80045
296.48311
296.65383
296.01078
295.80548
297.74671
297.38936
298.0547
297.86818
297.26633
297.14266
294.62629
294.55136
296.72014
296.41298
297.8205
297.44341
296.99896
296.71441
294.47603
294.26658
295.65134
295.49976
296.20962
295.9183
295.02436
294.72977
294.217
293.76781
294.87034
294.78175
294.44079
294.31123
292.88185
292.58952
293.34999
292.58968
294.0198
293.84601
293.38767
293.33678
291.74974
291.46737
292.03815
291.24308
292.7248
292.45234
292.34727
292.28606
291.13463
290.90099
290.62251
290.11328
291.21278
291.01009
291.10543
291.09218
290.51076
290.46389
289.35937
289.13801
289.78838
289.71699
289.89735
289.95306
289.76236
289.94891
288.39759
288.30051
288.69056
288.64258
288.95298
289.0155
289.17408
289.40289
287.78518
287.71979
288.01258
287.97367
288.31261
288.38277
288.75696
288.96175
287.44909
287.38454
287.6172
287.59617
287.91809
287.97476
288.49555
288.64262
287.35595
287.26554
287.43863
287.38066
287.72701
287.72273
288.38871
288.44271
287.50765
287.36981
287.48641
287.35346
287.71967
287.60653
288.41967
288.36533
287.89085
287.67845
287.77786
287.52764
287.92004
287.66307
288.57567
288.39812
288.33852
288.05092
288.23435
287.8459
288.30684
287.90624
288.86929
288.54997
288.71018
288.40004
288.64665
288.18135
288.74474
288.24453
289.25148
288.82499
289.01114
288.72378
288.96315
288.4748
289.08607
288.54636
289.55951
289.0941
289.29545
289.05013
289.24565
288.76634
289.35539
288.80919
289.78334
289.31641
289.57877
289.35821
289.53398
289.09764
289.61531
289.08587
289.98463
289.53223
289.71052
289.4882
289.69998
289.28579
289.78472
289.30223
290.11315
289.70666
295.38841
295.57186
298.4099
298.60926
298.83824
299.02813
295.13411
295.39183
298.35214
298.57249
298.82441
299.03306
294.57976
294.94805
298.17672
298.42808
298.78608
299.03176
293.9296
294.4214
297.9285
298.21282
298.75276
299.03194
293.32567
293.9289
297.65748
297.99466
298.73327
299.04015
292.91495
293.5897
297.40617
297.80006
298.71488
299.04718
292.62456
293.34953
297.14558
297.58722
298.66273
299.01601
292.36908
293.15615
296.83268
297.31416
298.51054
298.8981
292.13003
293.00818
296.46772
296.9894
298.22559
298.70105
291.94021
292.93466
296.05409
296.66766
297.82972
298.42035
291.81859
292.917
295.62938
296.3911
297.32455
298.01509
291.73892
292.94168
295.24756
296.08996
296.74416
297.46189
291.74736
293.08309
294.81382
295.63283
296.09657
296.75203
291.84097
293.20594
294.20155
294.95422
295.39115
296.00298
291.74565
293.01905
293.71628
294.32922
295.01077
295.51265
291.896
292.96434
293.89453
294.21402
295.16613
295.52151
292.57873
293.27459
294.31865
294.35171
295.46431
295.72669
293.38322
293.70146
294.56627
294.44716
295.78629
295.90493
293.89787
293.98899
294.61067
294.40386
295.84303
295.69846
294.11763
294.12174
294.44907
294.16619
295.27694
294.56505
294.18928
294.17693
293.99693
293.8679
293.4302
292.85134
294.10644
294.1644
294.08384
294.19964
292.34453
292.77759
293.99454
294.17057
294.53693
294.63687
292.64349
293.59217
294.02322
294.30455
294.98487
295.00746
293.39536
294.29926
294.31526
294.61958
295.4785
295.44257
294.05702
294.63423
294.81669
295.07615
296.00547
295.89479
294.50393
294.69114
295.37553
295.55208
296.49736
296.29269
294.73511
294.62906
295.97318
296.03041
296.90684
296.62297
294.80823
294.5308
296.60044
296.51728
297.21458
296.85555
294.80859
294.44796
297.10713
296.91682
297.40261
296.96224
294.79037
294.40619
297.42371
297.17142
297.47629
296.95327
294.77634
294.41678
297.60855
297.30455
297.47866
296.88822
294.7563
294.48326
297.72137
297.36692
297.42125
296.8005
294.711
294.61309
297.7959
297.39234
297.31262
296.6931
294.65212
294.78185
297.86435
297.41913
297.24496
296.61738
294.61477
294.92323
297.90084
297.44418
297.24256
296.6189
294.61077
294.96744
298.83461
297.28522
295.53389
294.32702
293.66343
293.35929
298.09433
294.86113
292.98796
292.21142
292.02937
292.12071
298.8432
297.35298
295.54058
294.26025
293.52555
293.16521
298.12921
294.9541
292.99491
292.13356
291.89984
291.96741
298.84331
297.45584
295.51224
294.05806
293.17702
292.71471
298.15228
295.06782
292.90807
291.89445
291.58527
291.61464
298.82544
297.53047
295.46919
293.82452
292.77197
292.1785
298.16462
295.13398
292.73969
291.55049
291.14025
291.11863
298.79125
297.56445
295.42709
293.62452
292.43286
291.70568
298.16609
295.16463
292.60022
291.26083
290.77198
290.67293
298.73398
297.57879
295.41089
293.501
292.20817
291.39205
298.14017
295.18821
292.516
291.07988
290.54727
290.36873
298.64033
297.56939
295.41605
293.44149
292.06346
291.16975
298.05817
295.17548
292.46015
290.95168
290.36852
290.12112
298.49155
297.51377
295.43242
293.43844
291.97192
290.99496
297.89596
295.06454
292.38042
290.82466
290.18093
289.88911
298.27293
297.38435
295.44885
293.46576
291.92206
290.85301
297.65078
294.84431
292.23089
290.6472
289.98419
289.6661
297.97134
297.15557
295.43203
293.45778
291.85835
290.71294
297.35742
294.55148
291.99197
290.3959
289.76869
289.47878
297.57857
296.83506
295.33291
293.35052
291.74772
290.54074
297.07272
294.2368
291.63809
290.03774
289.5221
289.29028
297.08672
296.46151
295.16667
293.18925
291.58123
290.30238
296.82149
293.97317
291.25119
289.4587
289.0434
288.92695
296.50476
296.07781
294.99415
293.22679
291.57083
290.13161
296.56537
293.88007
291.01687
288.96376
288.33762
288.08306
295.84666
295.61308
294.84649
293.55038
291.8385
290.25993
296.18896
293.92043
291.0091
288.83275
287.62715
287.26389
295.23676
295.11091
294.77562
293.84802
292.3601
290.58884
295.67626
293.90385
291.24327
289.08085
287.33832
286.28632
294.74889
294.70036
294.70342
294.03784
292.71914
290.94744
295.20498
293.88051
291.97079
289.48814
287.21628
285.57801
294.37027
294.40141
294.5038
294.06678
292.92017
291.31673
294.80736
293.81714
292.28034
289.64961
287.22458
285.27132
294.06684
294.14154
294.26102
294.06629
293.08056
291.53395
294.4779
293.69999
292.32959
289.93691
287.31094
284.9191
293.80439
293.87411
294.0066
294.00208
293.13553
291.65949
294.20196
293.54227
292.26544
290.11624
287.0763
284.40954
293.54258
293.56205
293.72149
293.88594
293.10547
291.63677
293.9675
293.35946
292.1029
289.94705
286.77154
283.65077
293.24609
293.21081
293.40825
293.78955
293.06105
291.53687
293.77841
293.1992
291.97367
289.78777
286.46312
282.97589
292.92012
292.86092
293.17247
293.78626
293.08421
291.44728
293.68208
293.08955
291.89857
289.70176
286.17925
282.35969
292.65564
292.6006
293.11966
293.9756
293.33611
291.67352
293.73972
293.08939
291.9666
289.87978
286.43568
282.56828
292.54678
292.50684
293.2341
294.31145
293.78269
292.17957
293.98978
293.2016
292.15916
290.28296
287.1363
283.6338
292.60414
292.57627
293.46202
294.73529
294.42396
292.99932
294.37881
293.44506
292.52837
290.97278
288.27285
285.25708
292.83781
292.79122
293.75441
295.14566
295.149
293.98708
294.83115
293.83949
293.10162
291.9037
289.63624
287.07465
293.23358
293.12433
294.07263
295.46105
295.79423
294.95177
295.29755
294.36178
293.82493
292.87918
291.05992
288.89194
293.73544
293.53725
294.39437
295.68607
296.28028
295.74354
295.74676
294.93782
294.57414
293.81722
292.40381
290.57195
294.25574
293.98344
294.70289
295.85151
296.59092
296.33381
296.15177
295.48507
295.25898
294.65146
293.5601
292.01147
294.74752
294.41944
294.98796
295.97573
296.76647
296.76365
296.49651
295.95539
295.82958
295.33637
294.47414
293.17117
295.19017
294.81412
295.24864
296.08984
296.83957
297.06193
296.77512
296.33554
296.27368
295.8781
295.1646
294.06833
295.56994
295.15436
295.48325
296.19762
296.87701
297.22862
296.99434
296.63389
296.61245
296.29824
295.6957
294.77692
295.89823
295.45191
295.69559
296.29561
296.90137
297.3174
297.17064
296.87369
296.88099
296.63952
296.1351
295.40568
296.21228
295.75029
295.92432
296.41688
296.94261
297.3684
297.33129
297.09521
297.12542
296.94964
296.54669
295.9962
296.51412
296.05588
296.18198
296.58517
297.03888
297.44531
297.47628
297.29976
297.3366
297.20238
296.87319
296.41882
296.62781