/*--------------------------------*- C++ -*----------------------------------*\
| =========                 |                                                 |
| \\      /  F ield         | OpenFOAM: The Open Source CFD Toolbox           |
|  \\    /   O peration     | Version:  2206                                  |
|   \\  /    A nd           | Website:  www.openfoam.com                      |
|    \\/     M anipulation  |                                                 |
\*---------------------------------------------------------------------------*/
FoamFile
{
    version     2.0;
    format      ascii;
    arch        "LSB;label=32;scalar=64";
    class       volVectorField;
    location    "100";
    object      U;
}
// * * * * * * * * * * * * * * * * * * * * * * * * * * * * * * * * * * * * * //

dimensions      [0 1 -1 0 0 0 0];

internalField   nonuniform List<vector> 
50904
(
(-11.755551 -2.857305 -0.34187651)
(-14.706066 -3.6495511 -0.34515987)
(-13.241518 -3.0310166 -0.30446882)
(-16.811178 -2.8264433 -0.14330056)
(-29.199548 -3.2112697 0.24052009)
(-32.988317 -4.427204 0.30407686)
(-32.294471 -3.803069 0.15490913)
(-36.142823 -3.5274499 0.27149971)
(-40.427689 -1.6260952 0.19562074)
(-44.05141 -2.8784789 0.35041605)
(-45.022572 -1.8995477 0.053750492)
(-48.033015 -2.0290968 0.32530851)
(-46.705482 -0.31898256 0.28325085)
(-50.153721 -1.5700066 0.50385703)
(-51.852269 -0.30993359 0.11218116)
(-54.181586 -0.66284967 0.45187875)
(-48.733608 0.18186096 0.33245208)
(-52.115611 -1.1039113 0.61690727)
(-53.945354 0.32152809 0.13645086)
(-55.998934 -0.13868179 0.55077475)
(-48.69652 0.27674991 0.40462505)
(-51.963011 -1.1050254 0.74644748)
(-54.144044 0.39505172 0.18953367)
(-56.060959 -0.12365768 0.66992153)
(-48.192943 0.33594484 0.49365036)
(-51.298223 -1.1892203 0.88208622)
(-53.811978 0.24418087 0.25347797)
(-55.625766 -0.33372051 0.78014571)
(-47.615638 0.47700475 0.63010504)
(-50.579743 -1.1861861 1.0398291)
(-53.310349 0.0010331293 0.349614)
(-55.017002 -0.65401887 0.90465645)
(-46.861238 0.67245612 0.86085617)
(-49.790992 -1.0455911 1.2487413)
(-52.676044 -0.21748389 0.48587573)
(-54.297334 -0.9866235 1.0406469)
(-45.754089 0.85019532 1.2939606)
(-48.748769 -0.82110988 1.6249236)
(-51.882421 -0.29435467 0.74538676)
(-53.421477 -1.2154311 1.2783863)
(-44.16881 0.87139981 1.8507918)
(-47.218617 -0.66703207 2.1257711)
(-50.942879 -0.24354451 1.0821059)
(-52.332209 -1.3100165 1.5929863)
(-42.091147 0.77898583 2.5095082)
(-45.084897 -0.60617156 2.7786175)
(-50.037244 -0.17327041 1.4299163)
(-51.035381 -1.3761784 1.9384156)
(-39.422451 0.64203093 3.1104153)
(-42.461655 -0.53193434 3.4162355)
(-48.902498 -0.078658055 1.8199219)
(-49.789927 -1.3525836 2.2839063)
(-36.179521 0.45743433 3.6295065)
(-39.335524 -0.45979242 3.9947229)
(-47.10726 0.048784531 2.3079973)
(-48.163069 -1.233581 2.6973234)
(-32.410986 0.10670875 4.1393633)
(-35.681784 -0.55132321 4.5633035)
(-44.962871 0.15526148 2.7770287)
(-46.236667 -1.0993519 3.1334937)
(-28.161887 -0.36777179 4.9826224)
(-31.487329 -0.86919534 5.3915609)
(-42.529889 0.12158421 3.0799194)
(-44.04379 -1.082577 3.3819453)
(-23.686427 -0.71617912 6.0869985)
(-26.980089 -1.1644202 6.4564419)
(-40.293925 -0.042582608 3.167269)
(-42.037856 -1.2477559 3.3897052)
(-19.258769 -0.89843675 6.6733663)
(-22.216204 -1.3385633 6.9321549)
(-38.289531 -0.30926958 2.9741957)
(-40.235321 -1.5011537 3.0867218)
(-16.02285 -0.91464817 6.1749332)
(-18.459111 -1.4793397 6.1144731)
(-37.070501 -0.37403123 2.4382712)
(-39.089801 -1.5818978 2.4281622)
(-14.971718 -0.62071644 4.4013459)
(-16.929421 -1.2344285 4.0082865)
(-36.83867 -0.069404989 1.5170371)
(-38.803201 -1.3207091 1.3383045)
(-15.809916 0.33100659 2.4349354)
(-17.744034 -0.10607706 1.6493406)
(-36.994585 0.55308029 0.74596386)
(-38.952294 -0.73918658 0.41310416)
(-17.377134 1.6195343 0.99394261)
(-19.578076 1.3200107 -0.12268164)
(-37.317092 1.5484224 0.252605)
(-39.244377 0.18910466 -0.22171192)
(-17.822413 2.2869599 0.18523969)
(-20.35574 2.0828521 -0.87021873)
(-37.04771 2.3616545 0.12411366)
(-39.076109 0.98421796 -0.49377223)
(-17.419596 2.3746826 -0.18961208)
(-20.372347 2.3216317 -1.0601998)
(-36.20459 2.6965889 0.079221453)
(-38.530939 1.3973433 -0.59528316)
(-16.443052 2.0552606 -0.28290445)
(-19.701723 2.250168 -0.88527671)
(-34.963898 2.6107052 0.11421901)
(-37.783278 1.4716589 -0.54560158)
(-15.028001 1.26542 -0.23802612)
(-18.239844 1.6411413 -0.6665369)
(-33.472531 2.1486122 0.19385225)
(-36.790155 1.2160103 -0.4115684)
(-13.554373 -0.081968529 -0.18976732)
(-16.476484 0.33729996 -0.52918185)
(-31.760228 1.2939687 0.23366496)
(-35.41905 0.54317749 -0.33009111)
(-12.803191 -1.7835173 -0.16120325)
(-15.536832 -1.3365443 -0.41774788)
(-29.973208 0.13408469 0.19856315)
(-33.904825 -0.43638969 -0.31836447)
(-13.390783 -3.543426 -0.10966569)
(-16.108612 -2.9355885 -0.29988028)
(-28.541831 -1.0921923 0.11764208)
(-32.752507 -1.4632485 -0.3235476)
(-15.256017 -5.0268924 -0.033055593)
(-17.899585 -4.1331533 -0.18699352)
(-27.879437 -2.0497921 0.047520896)
(-32.35503 -2.2203566 -0.29746712)
(-17.49725 -5.9482574 0.028137377)
(-19.983802 -4.7872494 -0.10411058)
(-27.975514 -2.5967355 0.011397407)
(-32.57472 -2.6074865 -0.22528122)
(-19.269894 -6.1622428 0.064725949)
(-21.409072 -4.886519 -0.056310888)
(-28.258199 -2.6812484 0.0018560959)
(-32.708511 -2.6226786 -0.14966054)
(-19.764358 -5.6247509 0.076051849)
(-21.287531 -4.3763083 -0.03253738)
(-27.575081 -2.3557195 0.0036981795)
(-31.255314 -2.3740268 -0.092883824)
(-17.709391 -4.1011261 0.067019251)
(-18.454658 -3.0875359 -0.01857247)
(-23.751644 -1.7796289 0.00024060697)
(-26.132117 -2.1261041 -0.066856244)
(-11.631928 -1.7538818 0.014984103)
(-11.837617 -1.3022453 -0.027017173)
(-15.514099 -1.263898 0.0049563242)
(-16.76926 -1.9397946 -0.018505682)
(-3.7504326 -0.17477397 0.094572375)
(-3.739164 -0.1623092 0.056994581)
(-5.266567 -0.60103897 -0.062911873)
(-5.5975963 -1.0901937 -0.10491205)
(-13.513117 -1.4958766 -0.090864582)
(-17.546588 -0.155525 0.15220849)
(-14.402408 -1.021615 0.005136977)
(-18.577223 1.2617032 0.34441246)
(-15.780259 -1.7719872 0.046917649)
(-18.677762 0.9037677 0.38697905)
(-16.045366 -2.6360189 0.074612132)
(-17.647806 0.37288686 0.35380517)
(-15.178689 -3.0958449 0.045391374)
(-15.941982 0.2286665 0.25522447)
(-13.60311 -3.067524 -0.066342015)
(-14.359859 0.40214447 0.1309642)
(-12.075665 -2.6943817 -0.18152975)
(-13.175437 0.68659774 0.023372191)
(-33.111708 -1.9948888 0.1258259)
(-37.247551 -0.41814876 0.41681849)
(-35.331026 -1.245337 0.20277352)
(-39.527626 1.2590899 0.55133704)
(-37.355548 -1.5693762 0.35117603)
(-40.08068 1.1033328 0.6566846)
(-37.461059 -1.6855702 0.45222821)
(-39.321498 1.1513196 0.6678395)
(-36.611382 -1.4744127 0.3778021)
(-38.189074 1.334331 0.54170635)
(-35.49507 -1.1531771 0.14565327)
(-37.115867 1.5468019 0.36707997)
(-34.482849 -0.85855717 -0.10360391)
(-36.159407 1.7235611 0.18882044)
(-45.727027 -0.69019884 0.057813948)
(-48.449064 0.47753927 0.51974566)
(-45.829375 -0.021447562 0.17392173)
(-48.400381 2.0171504 0.67047891)
(-46.35967 -0.086377321 0.28089993)
(-47.806983 2.0502411 0.71864138)
(-46.51995 -0.016308969 0.32610698)
(-47.437309 2.1364639 0.71815649)
(-46.5019 0.15609237 0.26622217)
(-47.130746 2.2142508 0.65092483)
(-46.334095 0.31406575 0.1223885)
(-46.816265 2.2712973 0.54991569)
(-46.026972 0.43088375 -0.045976753)
(-46.40678 2.3026518 0.43497461)
(-51.001067 0.41336866 0.12566715)
(-52.714932 1.2987504 0.6667012)
(-48.286804 0.82710419 0.26647626)
(-49.930017 2.6416059 0.78087196)
(-48.263532 0.7790971 0.33525932)
(-49.216723 2.670959 0.77730505)
(-48.507642 0.79552019 0.29956481)
(-48.954025 2.6792492 0.71928013)
(-48.647461 0.8695253 0.20067593)
(-48.789574 2.6893111 0.61755752)
(-48.684733 0.94056523 0.082038348)
(-48.678226 2.7013743 0.52545043)
(-48.595502 0.99444494 -0.031247864)
(-48.503885 2.6979805 0.43695372)
(-52.27818 0.86004893 0.18133149)
(-53.551928 1.6165561 0.76353338)
(-48.51531 1.2845402 0.30241004)
(-49.750846 2.9711683 0.8327589)
(-48.235072 1.2917078 0.33106447)
(-48.986819 3.0295084 0.7921695)
(-48.505137 1.2670869 0.25470822)
(-48.827566 3.0197791 0.724718)
(-48.774366 1.2609578 0.15252162)
(-48.762718 2.9803228 0.63070401)
(-48.923507 1.2601272 0.056471614)
(-48.737494 2.9510339 0.54529691)
(-48.920206 1.2696006 -0.023710526)
(-48.635298 2.9212588 0.46531784)
(-52.341542 0.96348502 0.26904276)
(-53.434065 1.634813 0.87448475)
(-48.181875 1.5077199 0.38026912)
(-49.226808 3.1278903 0.91281664)
(-47.847109 1.5565445 0.36540472)
(-48.426172 3.2109182 0.82691055)
(-48.096408 1.5014361 0.255424)
(-48.341647 3.1865794 0.71978039)
(-48.398075 1.4500832 0.1503802)
(-48.390791 3.1138327 0.62196797)
(-48.611006 1.4083306 0.069919398)
(-48.424121 3.0604585 0.54493972)
(-48.672736 1.3866829 0.0099835913)
(-48.364929 3.0168489 0.47358334)
(-52.046862 0.89812183 0.34098359)
(-53.0167 1.4722259 0.96272313)
(-47.75243 1.6154331 0.4287071)
(-48.614493 3.1369711 0.95804642)
(-47.372349 1.6986787 0.39424173)
(-47.780643 3.2668223 0.84685182)
(-47.598457 1.6220075 0.28808703)
(-47.729447 3.238337 0.74115298)
(-47.914317 1.5394549 0.19854175)
(-47.854641 3.138321 0.65883001)
(-48.1643 1.472468 0.13233255)
(-47.975153 3.0623459 0.59096035)
(-48.26305 1.4340173 0.083849308)
(-47.965657 3.0090961 0.5206249)
(-51.595294 0.74081853 0.40225707)
(-52.476981 1.1801918 1.0313242)
(-47.316082 1.6382553 0.44896796)
(-48.029127 3.0129014 0.97556666)
(-46.900902 1.7669561 0.41123522)
(-47.183615 3.1964565 0.84876882)
(-47.093821 1.6926715 0.32457275)
(-47.152271 3.180556 0.74521084)
(-47.405637 1.6045809 0.25678318)
(-47.326732 3.0783669 0.6719018)
(-47.668745 1.533105 0.20684557)
(-47.502976 2.9993486 0.6106608)
(-47.777456 1.4946711 0.17000823)
(-47.538915 2.947933 0.54435506)
(-51.167036 0.51725702 0.43756442)
(-51.941788 0.7829554 1.064837)
(-46.983392 1.5756745 0.41627967)
(-47.603946 2.755088 0.94480231)
(-46.540803 1.7682538 0.39405828)
(-46.776241 2.9935909 0.82155667)
(-46.678449 1.7212982 0.34411626)
(-46.724746 3.0142652 0.73281208)
(-46.954158 1.6517464 0.3026576)
(-46.901115 2.9328645 0.67041704)
(-47.186996 1.5980459 0.26824898)
(-47.082253 2.8682497 0.61269014)
(-47.253361 1.5820858 0.24078312)
(-47.120373 2.8333092 0.54693248)
(-50.835054 0.19742158 0.46828762)
(-51.460497 0.31019556 1.0472828)
(-46.867876 1.339 0.31670388)
(-47.424134 2.2969698 0.80902533)
(-46.442239 1.5561118 0.31107439)
(-46.700124 2.6099552 0.69398109)
(-46.545302 1.5651683 0.29028954)
(-46.611061 2.6687562 0.62768912)
(-46.744757 1.5401033 0.26820934)
(-46.721166 2.6262418 0.58189853)
(-46.879557 1.5304639 0.24575442)
(-46.828253 2.595378 0.53467979)
(-46.802255 1.5693938 0.22739176)
(-46.793481 2.5940521 0.47679277)
(-50.68003 -0.18187475 0.48379153)
(-51.094069 -0.13092538 1.0159678)
(-47.095814 0.89027178 0.12649203)
(-47.552764 1.5956717 0.59989503)
(-46.65046 1.1299145 0.11410591)
(-46.924127 1.9243261 0.48106444)
(-46.684937 1.1852583 0.10187378)
(-46.804543 1.9972995 0.42873252)
(-46.761125 1.2090203 0.093607643)
(-46.783348 2.0034598 0.39488936)
(-46.689226 1.2600951 0.089101764)
(-46.742818 2.0201275 0.36080846)
(-46.317818 1.3724342 0.097616064)
(-46.524753 2.0767641 0.32581201)
(-50.467629 -0.28708043 0.52138011)
(-50.758203 -0.67538173 0.98927112)
(-47.54211 0.28563131 -0.14747854)
(-47.85457 0.65642787 0.33470939)
(-47.014246 0.52698959 -0.19379415)
(-47.308193 0.99384614 0.2096948)
(-46.886261 0.62505672 -0.17810312)
(-47.049327 1.1114335 0.16933851)
(-46.719414 0.70895898 -0.15227412)
(-46.887651 1.183637 0.15104983)
(-46.339002 0.83676125 -0.11626051)
(-46.633952 1.2711395 0.14210243)
(-45.5076 1.0564375 -0.052105302)
(-45.989956 1.4364355 0.16025252)
(-50.233526 -0.63957626 0.6600114)
(-50.146697 -1.2952817 1.0693199)
(-47.856812 -0.67515344 -0.34718395)
(-47.993596 -0.55446457 0.096347937)
(-47.134028 -0.49926837 -0.48271362)
(-47.509244 -0.2658527 -0.11519161)
(-46.701952 -0.34555516 -0.49229161)
(-47.102918 -0.10313737 -0.16158678)
(-46.107535 -0.15542832 -0.42186198)
(-46.678187 0.064036802 -0.14315023)
(-45.140226 0.11860367 -0.30954026)
(-45.956589 0.27920722 -0.085518979)
(-43.555602 0.52825766 -0.14621102)
(-44.65072 0.62342328 0.028548803)
(-49.732485 -0.77702526 0.89748796)
(-49.475337 -1.6856471 1.2273073)
(-47.724236 -1.3460774 -0.31618702)
(-47.623776 -1.5565879 0.032877643)
(-46.774095 -1.2587141 -0.55989043)
(-47.147933 -1.3527537 -0.30231977)
(-46.11219 -1.0911925 -0.59508398)
(-46.728151 -1.1972872 -0.38311861)
(-45.231389 -0.84351281 -0.54248463)
(-46.097289 -0.9883003 -0.34943129)
(-43.904692 -0.48750588 -0.40084029)
(-45.077541 -0.69247289 -0.2459613)
(-41.851139 0.032218239 -0.19371231)
(-43.419423 -0.2534889 -0.074998835)
(-49.064517 -0.78739609 1.3173959)
(-48.728831 -1.9164738 1.5860286)
(-47.566504 -1.820602 -0.032839909)
(-47.219772 -2.3804182 0.22946111)
(-46.39784 -1.826215 -0.42543149)
(-46.703312 -2.3162413 -0.26691625)
(-45.601355 -1.6658257 -0.53897272)
(-46.324352 -2.2160718 -0.41856966)
(-44.617174 -1.404689 -0.52001306)
(-45.646282 -2.0277098 -0.42453187)
(-43.200699 -1.0299018 -0.39763001)
(-44.565564 -1.7306494 -0.34410363)
(-41.068424 -0.48751573 -0.19888088)
(-42.870875 -1.2783157 -0.17271182)
(-48.299583 -0.6889788 1.7035037)
(-47.999585 -2.0099132 1.968144)
(-47.457681 -2.0519746 0.45055241)
(-46.953716 -2.9071366 0.68413687)
(-46.112089 -2.1205085 -0.061970151)
(-46.351741 -2.9998411 0.03848111)
(-45.189005 -1.9522367 -0.28538316)
(-45.99391 -2.9151202 -0.23758753)
(-44.10676 -1.6675677 -0.31679184)
(-45.333166 -2.728893 -0.30639276)
(-42.644134 -1.27529 -0.23258543)
(-44.2436 -2.4384781 -0.26553438)
(-40.530483 -0.7236145 -0.059526814)
(-42.598776 -1.9977399 -0.11913009)
(-47.595826 -0.52046152 1.8652157)
(-47.254106 -1.9795648 2.1941051)
(-47.375359 -2.0575014 0.90710304)
(-46.775911 -3.1114357 1.1798211)
(-45.920612 -2.1432665 0.32266265)
(-46.129561 -3.2365091 0.45038664)
(-44.907165 -1.9575934 -0.019960345)
(-45.752398 -3.1624721 0.04952326)
(-43.760999 -1.6501916 -0.14536809)
(-45.104829 -2.9784135 -0.10810492)
(-42.276125 -1.242354 -0.12885759)
(-44.024186 -2.6902111 -0.11978932)
(-40.189037 -0.68055316 -0.0033104086)
(-42.430336 -2.2534944 -0.018897494)
(-46.971195 -0.35388179 1.763104)
(-46.613404 -1.8552366 2.1530808)
(-47.241342 -1.9263207 1.2549942)
(-46.586468 -3.0438043 1.5758014)
(-45.727199 -1.9830131 0.7014459)
(-45.915876 -3.1180411 0.87043404)
(-44.68141 -1.774971 0.262614)
(-45.55929 -3.0087365 0.36715998)
(-43.535509 -1.4535151 0.042077143)
(-44.934667 -2.8061853 0.11097564)
(-42.077235 -1.0412223 -0.014347231)
(-43.899492 -2.5140876 0.026663862)
(-40.048021 -0.48001126 0.0549445)
(-42.385878 -2.082296 0.067806899)
(-46.441858 -0.10781888 1.4101381)
(-46.091673 -1.6033817 1.835575)
(-47.015954 -1.6504865 1.3741953)
(-46.342961 -2.7412717 1.7126176)
(-45.6191 -1.6751895 0.86752079)
(-45.739102 -2.7563298 1.0420786)
(-44.688913 -1.4942047 0.3632802)
(-45.458497 -2.6525093 0.48877768)
(-43.670392 -1.2071744 0.066315619)
(-44.950712 -2.4770308 0.17481779)
(-42.368231 -0.83506607 -0.056764928)
(-44.07319 -2.2237694 0.036577506)
(-40.54105 -0.32344141 -0.066275702)
(-42.757649 -1.8439271 0.023685676)
(-46.06724 0.26210618 0.9248155)
(-45.702502 -1.1947287 1.3643891)
(-46.727704 -1.2710851 1.3616238)
(-46.062389 -2.2619152 1.705554)
(-45.556325 -1.2710593 0.98422232)
(-45.587238 -2.2396039 1.1503653)
(-44.819796 -1.1426684 0.51262537)
(-45.411136 -2.1707807 0.61684797)
(-44.014733 -0.9202245 0.20571375)
(-45.083077 -2.0554036 0.28705425)
(-42.9698 -0.62016465 0.053000695)
(-44.434165 -1.8709784 0.12274997)
(-41.466952 -0.19960238 0.020429827)
(-43.392151 -1.5729173 0.08072185)
(-45.729303 0.70939572 0.47404087)
(-45.402968 -0.66806166 0.87024317)
(-46.416273 -0.8092892 1.2015262)
(-45.784369 -1.6667391 1.5049041)
(-45.43422 -0.82464743 0.88422198)
(-45.442372 -1.6294202 1.0240415)
(-44.884057 -0.74927498 0.46929376)
(-45.371733 -1.5964182 0.56111515)
(-44.299311 -0.59809859 0.1917682)
(-45.191166 -1.5386367 0.27026835)
(-43.522612 -0.37801155 0.045147966)
(-44.762513 -1.4237578 0.12052286)
(-42.35922 -0.055962762 0.00084326981)
(-43.985056 -1.2072809 0.078325987)
(-45.410961 1.3769101 0.26638746)
(-45.140222 0.073616649 0.56899731)
(-46.051808 -0.15094485 1.1522577)
(-45.474066 -0.84686031 1.3278994)
(-45.213412 -0.18837372 0.88172061)
(-45.285047 -0.74177794 0.91114116)
(-44.817509 -0.15644405 0.53892086)
(-45.304339 -0.73416846 0.5342854)
(-44.396525 -0.06020582 0.31794024)
(-45.221527 -0.71255884 0.30167567)
(-43.806766 0.098381662 0.20746194)
(-44.940221 -0.64306558 0.18676517)
(-42.872324 0.34946146 0.18288391)
(-44.330574 -0.48093842 0.16468067)
(-45.010594 2.0836569 0.23192307)
(-44.840553 0.81668033 0.35210926)
(-45.645146 0.65196043 1.0236003)
(-45.110583 0.030593687 0.9866281)
(-44.918121 0.64107815 0.74689877)
(-45.070396 0.15809231 0.60532371)
(-44.659923 0.66015331 0.46874952)
(-45.175114 0.18671092 0.33503645)
(-44.384842 0.72375275 0.30962118)
(-45.156097 0.20567019 0.18440112)
(-43.948604 0.83967586 0.24278424)
(-44.967959 0.25742129 0.12109034)
(-43.188669 1.0395142 0.24358009)
(-44.45979 0.39204613 0.12388111)
(-44.526119 2.5937322 0.26154367)
(-44.54842 1.3273664 0.24536998)
(-45.322765 1.2121359 0.9440268)
(-44.844574 0.56915234 0.71704397)
(-44.683682 1.1570444 0.64047157)
(-44.887521 0.68503817 0.30030595)
(-44.559644 1.1484144 0.38059715)
(-45.011538 0.70574093 0.063833546)
(-44.352635 1.1909903 0.24501644)
(-45.028922 0.72307428 -0.04316876)
(-43.978772 1.2906564 0.19396965)
(-44.881494 0.768711 -0.08004523)
(-43.277246 1.4738038 0.19904423)
(-44.41445 0.89865402 -0.073183229)
(-44.021549 2.8742373 0.33215354)
(-44.393098 1.6106187 0.20346533)
(-45.201754 1.5729678 0.94878778)
(-44.793574 0.86094038 0.57337976)
(-44.68511 1.4506341 0.62004913)
(-44.820552 0.92626535 0.10481425)
(-44.603391 1.4058655 0.34863701)
(-44.928759 0.90513676 -0.14919907)
(-44.41203 1.4323386 0.21117556)
(-44.959483 0.89866546 -0.25901828)
(-44.060774 1.5183515 0.15859767)
(-44.827763 0.93114049 -0.30494131)
(-43.385551 1.6905308 0.15706321)
(-44.37941 1.0521381 -0.32219161)
(-43.527124 2.9873482 0.41792977)
(-44.349365 1.7455654 0.25223031)
(-45.196478 1.8888752 1.0006498)
(-44.916939 1.0735341 0.55218884)
(-44.84236 1.716178 0.69128573)
(-44.873129 1.0800666 0.066283744)
(-44.778127 1.6327235 0.41613817)
(-45.038821 0.97207287 -0.19945494)
(-44.626356 1.6313141 0.28172747)
(-45.100587 0.9157395 -0.31216768)
(-44.332803 1.6924455 0.2360491)
(-44.985254 0.92010297 -0.36238418)
(-43.73476 1.8360661 0.25193572)
(-44.589813 1.010297 -0.37751091)
(-43.082897 2.9319001 0.46722862)
(-44.426881 1.7236819 0.28738697)
(-45.477937 2.1891536 1.0308048)
(-45.235859 1.309324 0.5703512)
(-45.052347 2.0476144 0.7604785)
(-45.027853 1.3090462 0.11523641)
(-45.033974 1.9673795 0.49684966)
(-45.290492 1.1585532 -0.14105725)
(-44.979906 1.9411732 0.36287615)
(-45.400099 1.0681612 -0.25927723)
(-44.832016 1.9618246 0.32366615)
(-45.364017 1.0376027 -0.30601945)
(-44.456641 2.0409892 0.3567942)
(-45.111204 1.0777577 -0.30332417)
(-42.780209 2.670905 0.44777731)
(-44.658605 1.5947211 0.26822751)
(-46.183258 2.3915167 1.0109235)
(-45.901545 1.4850403 0.57452566)
(-45.680454 2.2807301 0.78859824)
(-45.456127 1.4879428 0.18434771)
(-45.639338 2.2177873 0.55211969)
(-45.723924 1.3319659 -0.056880146)
(-45.588544 2.1902666 0.42811546)
(-45.858874 1.2380139 -0.17622709)
(-45.486353 2.1982954 0.39788711)
(-45.87405 1.1961415 -0.21960826)
(-45.213324 2.2465602 0.44220109)
(-45.70524 1.2115657 -0.20399216)
(-42.509922 2.2295471 0.36206343)
(-44.948427 1.2974442 0.21082595)
(-47.034038 2.5071342 0.94193753)
(-46.763438 1.6148279 0.56861036)
(-46.584981 2.4591202 0.7789638)
(-46.192902 1.632895 0.25123416)
(-46.55331 2.4217252 0.56308064)
(-46.474529 1.4768991 0.015676633)
(-46.477345 2.4110867 0.44908809)
(-46.601057 1.3886358 -0.10298148)
(-46.34437 2.4334685 0.43000418)
(-46.603277 1.3498385 -0.14026937)
(-46.053569 2.4869013 0.48598634)
(-46.428509 1.3622131 -0.11353954)
(-42.303403 1.6756575 0.25406587)
(-45.234947 0.93073846 0.14000971)
(-47.865813 2.5355333 0.81325625)
(-47.622118 1.6750401 0.52886148)
(-47.500469 2.5732706 0.72941482)
(-46.99634 1.7396852 0.31418797)
(-47.460611 2.572994 0.54796453)
(-47.276247 1.597197 0.089334233)
(-47.335402 2.5944475 0.44233337)
(-47.366863 1.5242124 -0.022679061)
(-47.138295 2.6480855 0.43143924)
(-47.321293 1.5016214 -0.049867268)
(-46.795012 2.7229122 0.49026883)
(-47.104714 1.5242583 -0.014747937)
(-42.242699 1.2200194 0.16497695)
(-45.448177 0.6330669 0.090588081)
(-48.461817 2.4782796 0.67632746)
(-48.304458 1.6617767 0.48460189)
(-48.313458 2.6166939 0.67448658)
(-47.755779 1.793012 0.35208898)
(-48.239997 2.6622951 0.52139143)
(-47.999185 1.6648815 0.14888864)
(-48.054968 2.7231687 0.41336852)
(-48.033217 1.6075418 0.036571914)
(-47.780597 2.8195165 0.3984688)
(-47.920297 1.608761 0.011863242)
(-47.371239 2.9284567 0.45487496)
(-47.641636 1.6528685 0.050356236)
(-41.967712 0.77405001 0.098645243)
(-45.215686 0.30605929 0.049872564)
(-48.680062 2.2921494 0.5305896)
(-48.557258 1.5278941 0.42999127)
(-48.824942 2.5973834 0.59903154)
(-48.317687 1.8021608 0.36888989)
(-48.78137 2.7209339 0.47274791)
(-48.519401 1.70799 0.19390584)
(-48.535329 2.8329493 0.35281859)
(-48.453794 1.6826493 0.077543353)
(-48.157334 2.98231 0.32243543)
(-48.282628 1.7194324 0.046039607)
(-47.650198 3.1413631 0.36201131)
(-47.913282 1.7999277 0.075869797)
(-40.043242 0.26030753 0.057612347)
(-42.85511 -0.1594871 0.040767944)
(-47.291602 1.8183448 0.38598536)
(-47.201632 1.1086355 0.35322853)
(-48.10512 2.4181027 0.51738722)
(-47.898113 1.6947832 0.37195368)
(-48.33601 2.6889063 0.43175123)
(-48.247588 1.6993567 0.23738817)
(-48.068507 2.9010847 0.3076351)
(-48.148952 1.7501376 0.11153712)
(-47.611615 3.1492884 0.24352359)
(-47.852582 1.8729957 0.054956464)
(-47.042526 3.3824685 0.24149188)
(-47.405149 2.0189487 0.058166843)
(-33.628137 -0.4587343 0.01264089)
(-35.766633 -0.93280637 0.0055454676)
(-40.236715 0.8371199 0.22594475)
(-40.347972 0.28674276 0.23276953)
(-42.842903 1.8712231 0.36547719)
(-43.261658 1.2457506 0.28646588)
(-44.375215 2.3775299 0.29699688)
(-44.934998 1.5049582 0.19534177)
(-44.369564 2.6838416 0.15078085)
(-45.052134 1.6429161 0.056407353)
(-43.81491 2.9927593 0.040275146)
(-44.619017 1.8335616 -0.040519254)
(-43.05393 3.2826706 0.0071632121)
(-43.944136 2.0487296 -0.066843856)
(-22.047072 -1.1247504 0.02825777)
(-23.695375 -1.6726866 0.017017613)
(-26.498727 -0.45249614 0.10358385)
(-26.893498 -0.85707276 0.11622511)
(-29.372928 0.73843358 0.19740418)
(-30.285249 0.36211277 0.16860671)
(-32.08809 1.3945026 0.19534973)
(-33.289148 0.73965984 0.14038486)
(-32.53711 1.6831672 0.11350765)
(-33.884633 0.89829222 0.06304738)
(-31.816389 1.9420553 0.015807816)
(-33.308708 1.0804472 -0.022979032)
(-30.808885 2.1830844 -0.037998117)
(-32.399209 1.272813 -0.065736448)
(-7.7256596 -0.87544661 -0.088824405)
(-8.4896474 -1.2148547 -0.09836463)
(-9.326126 -0.93127899 -0.11316703)
(-9.7816696 -1.0098857 -0.1012006)
(-10.398504 -0.28530818 -0.085962624)
(-11.141812 -0.33518775 -0.067658268)
(-11.971104 0.19929022 -0.060910285)
(-12.871484 -0.037760967 -0.047180872)
(-12.698053 0.39437909 -0.039115828)
(-13.644394 0.034327175 -0.045128737)
(-12.613843 0.53021615 -0.034000957)
(-13.579076 0.080077432 -0.047258473)
(-12.161439 0.63204237 -0.042092615)
(-13.120026 0.14235542 -0.046813509)
(-10.925405 -2.2169487 -0.27142589)
(-12.252472 1.0047377 -0.071802145)
(-10.348456 -1.6849348 -0.39766687)
(-11.693786 1.3856566 -0.16838318)
(-9.9484528 -1.1848733 -0.47226811)
(-11.1302 1.7114151 -0.18599007)
(-9.7690487 -0.65226482 -0.41648833)
(-10.649037 2.0192506 -0.10185375)
(-10.159496 -0.11720375 -0.21885118)
(-10.406846 2.2292482 0.07179634)
(-11.237135 0.0088465666 -0.022359379)
(-10.50156 1.870601 0.24905149)
(-33.611958 -0.62192462 -0.32850197)
(-35.243453 1.8587001 0.015894119)
(-33.039278 -0.35586529 -0.47730767)
(-34.525293 2.0397124 -0.11751945)
(-32.294059 -0.1962261 -0.54079495)
(-33.606759 2.1543532 -0.16949286)
(-31.57329 -0.068317857 -0.52887389)
(-32.643035 2.2240908 -0.13592858)
(-31.228272 0.00020871278 -0.37630201)
(-31.83819 2.1344255 -0.015284395)
(-31.496933 -0.21187535 -0.068946159)
(-31.384917 1.56584 0.16452013)
(-45.535984 0.51485953 -0.21775738)
(-45.823692 2.3141485 0.30753354)
(-44.920184 0.66668562 -0.35202047)
(-45.120294 2.3988637 0.21340792)
(-44.027722 0.79628356 -0.4136196)
(-44.169281 2.4748388 0.16224154)
(-42.912239 0.92508157 -0.40341278)
(-42.964119 2.5553154 0.15741276)
(-41.684604 0.98982498 -0.29454097)
(-41.597297 2.5486267 0.21535577)
(-40.008913 0.87789026 0.025055199)
(-39.881554 2.2569352 0.36237355)
(-48.339975 1.0250193 -0.14125084)
(-48.181374 2.6823727 0.34373801)
(-47.900877 1.1301177 -0.2200467)
(-47.706249 2.7394444 0.28276633)
(-47.063868 1.2625597 -0.26130897)
(-46.9638 2.8168795 0.24863261)
(-45.583553 1.4787759 -0.2497121)
(-45.628662 2.9588867 0.25108729)
(-43.564121 1.7212648 -0.13170164)
(-43.658415 3.1144798 0.3125144)
(-40.805497 1.8112756 0.1961795)
(-41.013562 3.0537125 0.45139775)
(-48.702756 1.2810296 -0.097837883)
(-48.372133 2.8927923 0.3808091)
(-48.25091 1.3840525 -0.13295102)
(-47.947278 2.9439185 0.32477172)
(-47.428114 1.5224873 -0.14243675)
(-47.255725 3.027494 0.28639645)
(-45.927416 1.7650025 -0.10465273)
(-45.870306 3.2043413 0.28743682)
(-43.50102 2.1205817 0.037129)
(-43.54972 3.4768685 0.36146556)
(-39.97547 2.4467948 0.38742489)
(-40.227255 3.641957 0.53323159)
(-48.499021 1.378579 -0.041221562)
(-48.141408 2.9823765 0.39539508)
(-48.046066 1.4784007 -0.052332688)
(-47.720635 3.0385501 0.34145891)
(-47.162999 1.6337289 -0.043318106)
(-46.964781 3.1478395 0.29930453)
(-45.435162 1.9361342 0.015264421)
(-45.355475 3.388908 0.29422531)
(-42.503507 2.4332361 0.18992946)
(-42.534645 3.7939084 0.38146731)
(-38.180766 3.0112963 0.59275313)
(-38.4487 4.182106 0.61333978)
(-48.101755 1.4182358 0.043483932)
(-47.763518 2.9753598 0.43650324)
(-47.609498 1.5283229 0.042409649)
(-47.323113 3.0456421 0.37370037)
(-46.59295 1.7173253 0.056303107)
(-46.422662 3.1969929 0.31960175)
(-44.503754 2.1092227 0.12015309)
(-44.465591 3.5368512 0.30165272)
(-40.902228 2.7738265 0.31385379)
(-40.966604 4.1171455 0.39493914)
(-35.673748 3.6059645 0.77175652)
(-35.980777 4.7724608 0.68281871)
(-47.597144 1.4866827 0.14038143)
(-47.347325 2.9240334 0.4613891)
(-47.027978 1.6219786 0.1495797)
(-46.856798 3.0192564 0.39908081)
(-45.799289 1.8636099 0.17108768)
(-45.73712 3.2301933 0.34106339)
(-43.183559 2.3838362 0.2462863)
(-43.286789 3.709872 0.32104392)
(-38.784373 3.2406092 0.46012006)
(-39.021074 4.5082198 0.43101826)
(-32.725209 4.2893588 0.95032932)
(-33.171827 5.4498529 0.7534692)
(-46.987439 1.6069957 0.22011783)
(-46.892155 2.8368809 0.46426973)
(-46.255194 1.7957183 0.24111175)
(-46.254212 2.980864 0.4056598)
(-44.641968 2.1298122 0.28097816)
(-44.807742 3.2832877 0.35891778)
(-41.158976 2.8618317 0.39559793)
(-41.623376 3.9620358 0.3594188)
(-35.767964 3.9561081 0.6580635)
(-36.458417 5.0300725 0.50056521)
(-29.190794 5.1609413 1.1493202)
(-30.062451 6.2154291 0.81965798)
(-46.299466 1.6604759 0.21870551)
(-46.411896 2.6480636 0.40835934)
(-45.168784 1.9582235 0.25785309)
(-45.459774 2.8774829 0.37741339)
(-42.728395 2.4925352 0.34406631)
(-43.378614 3.341889 0.37353689)
(-37.712998 3.5744627 0.57137715)
(-38.871885 4.3512916 0.47316296)
(-30.878638 5.0202834 0.9642837)
(-32.360971 5.7854503 0.74534457)
(-23.838306 6.4011512 1.4707524)
(-25.538666 7.21466 1.0639299)
(-45.343242 1.5859488 0.13069592)
(-45.769272 2.2309975 0.30489181)
(-43.46779 2.0536655 0.23731996)
(-44.175088 2.6158974 0.34070167)
(-39.738464 2.8790781 0.4504239)
(-40.841192 3.3815386 0.47344438)
(-32.698933 4.4084069 0.88879303)
(-34.286068 4.8745792 0.80579514)
(-23.841773 6.3149514 1.4775232)
(-26.008523 6.750174 1.266406)
(-16.154226 7.9883696 1.9261656)
(-18.887974 8.4636072 1.5365887)
(-43.845576 1.4267401 0.06764893)
(-44.497797 1.7802215 0.23630382)
(-41.143272 2.0719661 0.28270381)
(-41.70352 2.4499188 0.41418837)
(-36.419871 3.1059677 0.63979663)
(-36.63826 3.6136239 0.74362071)
(-27.90308 4.9385168 1.2640681)
(-28.374146 5.4797651 1.266038)
(-17.258346 7.2630236 1.9667969)
(-19.372347 7.5726001 1.6915701)
(-10.205156 9.1490198 2.1766341)
(-13.610268 9.1876382 1.8103815)
(-40.765423 1.1659066 0.10722946)
(-42.163551 1.2253549 0.23551076)
(-36.453635 2.1997244 0.48518772)
(-38.115897 2.2201915 0.5507164)
(-29.809479 3.7166947 0.99600182)
(-31.844722 3.7102008 0.96959599)
(-20.594248 5.8249604 1.5941309)
(-23.276535 5.7682671 1.4110547)
(-11.929777 7.892073 1.9386816)
(-15.304661 7.8497001 1.605971)
(-7.9462258 9.2841162 1.7564433)
(-11.412228 9.0847863 1.4360299)
(-38.363968 0.83176797 0.10879905)
(-40.469938 0.46699177 0.18400537)
(-33.089093 2.1025873 0.52156369)
(-35.911189 1.6300346 0.51438061)
(-25.851446 3.7925592 0.96670476)
(-29.320873 3.2604836 0.83002156)
(-17.478327 5.7670789 1.2985357)
(-21.040745 5.3715653 1.0301255)
(-10.318925 7.5359041 1.3113837)
(-13.929131 7.3511124 0.96521445)
(-7.1163198 8.6349267 1.052676)
(-10.770263 8.4086428 0.63359749)
(-37.487414 0.32475225 0.092162693)
(-39.971596 -0.58615593 0.068096796)
(-32.12954 1.6238454 0.47727964)
(-35.601127 0.54882163 0.32851228)
(-25.060175 3.2866307 0.84801911)
(-29.364573 2.124897 0.52792338)
(-17.10223 5.1768096 1.056074)
(-21.418891 4.1979951 0.5585745)
(-10.273639 6.8551525 0.95074653)
(-14.489907 6.1161704 0.26007133)
(-6.8145932 7.90373 0.67519471)
(-11.298759 7.3182177 -0.17809153)
(-37.082185 0.056619746 0.20882795)
(-39.86894 -1.3617588 0.10168412)
(-31.896831 1.3182324 0.5799377)
(-35.851306 -0.32019571 0.35725925)
(-24.980645 2.9434011 0.9547892)
(-30.16057 1.1008356 0.56393404)
(-17.192979 4.7936969 1.1792814)
(-22.657965 3.0447219 0.59412789)
(-10.420773 6.4659142 1.083819)
(-15.742011 4.9972655 0.21059009)
(-6.5998798 7.6066333 0.74851728)
(-12.104869 6.3706038 -0.46339371)
(-36.835508 0.078705016 0.22612204)