/*--------------------------------*- C++ -*----------------------------------*\
| =========                 |                                                 |
| \\      /  F ield         | OpenFOAM: The Open Source CFD Toolbox           |
|  \\    /   O peration     | Version:  2206                                  |
|   \\  /    A nd           | Website:  www.openfoam.com                      |
|    \\/     M anipulation  |                                                 |
\*---------------------------------------------------------------------------*/
FoamFile
{
    version     2.0;
    format      ascii;
    arch        "LSB;label=32;scalar=64";
    class       volVectorField;
    location    "100";
    object      Urel;
}
// * * * * * * * * * * * * * * * * * * * * * * * * * * * * * * * * * * * * * //

dimensions      [0 1 -1 0 0 0 0];

internalField   nonuniform List<vector> 
50904
(
(-11.756755 -2.8526316 -0.34187651)
(-14.707244 -3.6449646 -0.34515987)
(-13.242622 -3.0263559 -0.30446882)
(-16.81226 -2.8218613 -0.14330056)
(-29.200755 -3.2065963 0.24052009)
(-32.989497 -4.4226176 0.30407686)
(-32.295577 -3.7984082 0.15490913)
(-36.143908 -3.522868 0.27149971)
(-40.428899 -1.6214217 0.19562074)
(-44.052593 -2.8738926 0.35041605)
(-45.023681 -1.8948868 0.053750492)
(-48.034102 -2.024515 0.32530851)
(-46.706696 -0.31430906 0.28325085)
(-50.154909 -1.5654205 0.50385703)
(-51.853382 -0.30527261 0.11218116)
(-54.182677 -0.65826796 0.45187875)
(-48.734828 0.18653452 0.33245208)
(-52.116804 -1.0993255 0.61690727)
(-53.946471 0.3261892 0.13645086)
(-56.000029 -0.13410023 0.55077475)
(-48.697746 0.28142354 0.40462505)
(-51.96421 -1.1004399 0.74644748)
(-54.145167 0.399713 0.18953367)
(-56.06206 -0.1190763 0.66992153)
(-48.194178 0.34061857 0.49365036)
(-51.29943 -1.1846352 0.88208622)
(-53.813108 0.24884239 0.25347797)
(-55.626873 -0.32913933 0.78014571)
(-47.616883 0.48167863 0.63010504)
(-50.580961 -1.1816015 1.0398291)
(-53.311487 0.0056950353 0.349614)
(-55.018118 -0.64943789 0.90465645)
(-46.862496 0.67713017 0.86085617)
(-49.792222 -1.0410071 1.2487413)
(-52.677193 -0.21282147 0.48587573)
(-54.29846 -0.98204274 1.0406469)
(-45.755363 0.85486966 1.2939606)
(-48.750015 -0.81652658 1.6249236)
(-51.883583 -0.28969144 0.74538676)
(-53.422616 -1.2108505 1.2783863)
(-44.170103 0.87607454 1.8507918)
(-47.219881 -0.66244962 2.1257711)
(-50.944057 -0.23888013 1.0821059)
(-52.333363 -1.3054359 1.5929863)
(-42.092464 0.78366116 2.5095082)
(-45.086183 -0.60159008 2.7786175)
(-50.038441 -0.16860437 1.4299163)
(-51.036553 -1.3715977 1.9384156)
(-39.423795 0.64670725 3.1104153)
(-42.462968 -0.52735384 3.4162355)
(-48.903717 -0.073989471 1.8199219)
(-49.791121 -1.3480024 2.2839063)
(-36.180898 0.4621123 3.6295065)
(-39.336868 -0.45521268 3.9947229)
(-47.108505 0.053456872 2.3079973)
(-48.164287 -1.2289984 2.6973234)
(-32.412401 0.11138978 4.1393633)
(-35.683165 -0.54674356 4.5633035)
(-44.964145 0.15993968 2.7770287)
(-46.237913 -1.0947667 3.1334937)
(-28.163341 -0.36308618 4.9826224)
(-31.488746 -0.86461468 5.3915609)
(-42.531192 0.12627005 3.0799194)
(-44.045063 -1.0779878 3.3819453)
(-23.687916 -0.7114873 6.0869985)
(-26.98154 -1.159837 6.4564419)
(-40.295252 -0.037887775 3.167269)
(-42.039152 -1.2431613 3.3897052)
(-19.260289 -0.89373678 6.6733663)
(-22.217684 -1.3339756 6.9321549)
(-38.290877 -0.30456438 2.9741957)
(-40.236635 -1.4965523 3.0867218)
(-16.024396 -0.90993791 6.1749332)
(-18.460615 -1.4747454 6.1144731)
(-37.071859 -0.36931429 2.4382712)
(-39.091127 -1.5772882 2.4281622)
(-14.973285 -0.61599439 4.4013459)
(-16.930946 -1.229826 4.0082865)
(-36.840036 -0.064675089 1.5170371)
(-38.804533 -1.3160899 1.3383045)
(-15.811503 0.33574079 2.4349354)
(-17.745578 -0.10146588 1.6493406)
(-36.995957 0.55782371 0.74596386)
(-38.953632 -0.73455719 0.41310416)
(-17.378744 1.6242797 0.99394261)
(-19.579642 1.3246296 -0.12268164)
(-37.318473 1.5531793 0.252605)
(-39.245724 0.19374413 -0.22171192)
(-17.824048 2.2917137 0.18523969)
(-20.35733 2.0874765 -0.87021873)
(-37.049105 2.366423 0.12411366)
(-39.077469 0.98886587 -0.49377223)
(-17.421253 2.3794417 -0.18961208)
(-20.373957 2.3262591 -1.0601998)
(-36.205999 2.7013662 0.079221453)
(-38.532312 1.4019974 -0.59528316)
(-16.444728 2.0600226 -0.28290445)
(-19.703351 2.2547966 -0.88527671)
(-34.96532 2.6154891 0.11421901)
(-37.784664 1.4763174 -0.54560158)
(-15.029693 1.2701832 -0.23802612)
(-18.241488 1.64577 -0.6665369)
(-33.473966 2.1534009 0.19385225)
(-36.791552 1.2206719 -0.4115684)
(-13.556079 -0.077205015 -0.18976732)
(-16.478141 0.34192802 -0.52918185)
(-31.761674 1.298761 0.23366496)
(-35.420458 0.54784124 -0.33009111)
(-12.804908 -1.778754 -0.16120325)
(-15.5385 -1.3319172 -0.41774788)
(-29.974663 0.13887969 0.19856315)
(-33.906242 -0.4317244 -0.31836447)
(-13.39251 -3.5386632 -0.10966569)
(-16.110289 -2.9309624 -0.29988028)
(-28.543295 -1.0873953 0.11764208)
(-32.753932 -1.4585822 -0.3235476)
(-15.257752 -5.0221303 -0.033055593)
(-17.90127 -4.1285283 -0.18699352)
(-27.880908 -2.0449936 0.047520896)
(-32.356462 -2.2156895 -0.29746712)
(-17.498991 -5.943496 0.028137377)
(-19.985493 -4.7826254 -0.10411058)
(-27.97699 -2.5919359 0.011397407)
(-32.576157 -2.6028189 -0.22528122)
(-19.27164 -6.157482 0.064725949)
(-21.410768 -4.8818958 -0.056310888)
(-28.25968 -2.6764479 0.0018560959)
(-32.709953 -2.6180107 -0.14966054)
(-19.766108 -5.6199907 0.076051849)
(-21.289231 -4.3716859 -0.03253738)
(-27.576566 -2.3509184 0.0036981795)
(-31.25676 -2.3693587 -0.092883824)
(-17.711145 -4.0963664 0.067019251)
(-18.456361 -3.0829141 -0.01857247)
(-23.753132 -1.7748273 0.00024060697)
(-26.133566 -2.1214358 -0.066856244)
(-11.633684 -1.7491224 0.014984103)
(-11.839323 -1.297624 -0.027017173)
(-15.51559 -1.259096 0.0049563242)
(-16.770711 -1.9351261 -0.018505682)
(-3.7521907 -0.17001491 0.094572375)
(-3.7408717 -0.15768826 0.056994581)
(-5.2680595 -0.59623671 -0.062911873)
(-5.5990491 -1.0855251 -0.10491205)
(-13.514132 -1.4912273 -0.090864582)
(-17.547586 -0.15094683 0.15220849)
(-14.403358 -1.0169727 0.005136977)
(-18.578159 1.266279 0.34441246)
(-15.781186 -1.7673465 0.046917649)
(-18.678675 0.90834363 0.38697905)
(-16.046281 -2.631379 0.074612132)
(-17.648707 0.377463 0.35380517)
(-15.179597 -3.0912054 0.045391374)
(-15.942876 0.23324284 0.25522447)
(-13.604013 -3.0628848 -0.066342015)
(-14.360748 0.406721 0.1309642)
(-12.076564 -2.6897427 -0.18152975)
(-13.176322 0.69117446 0.023372191)
(-33.112724 -1.9902394 0.1258259)
(-37.248551 -0.41357063 0.41681849)
(-35.331977 -1.2406946 0.20277352)
(-39.528563 1.2636657 0.55133704)
(-37.356476 -1.5647354 0.35117603)
(-40.081594 1.1079087 0.6566846)
(-37.461975 -1.6809302 0.45222821)
(-39.3224 1.1558957 0.6678395)
(-36.612291 -1.4697731 0.3778021)
(-38.189969 1.3389073 0.54170635)
(-35.495974 -1.1485378 0.14565327)
(-37.116757 1.5513784 0.36707997)
(-34.483749 -0.85391806 -0.10360391)
(-36.160293 1.7281378 0.18882044)
(-45.728046 -0.68554937 0.057813948)
(-48.450066 0.48211735 0.51974566)
(-45.830328 -0.016805049 0.17392173)
(-48.40132 2.0217262 0.67047891)
(-46.3606 -0.081736418 0.28089993)
(-47.807899 2.054817 0.71864138)
(-46.520867 -0.011668795 0.32610698)
(-47.438212 2.14104 0.71815649)
(-46.50281 0.16073213 0.26622217)
(-47.131642 2.2188272 0.65092483)
(-46.335 0.31870523 0.1223885)
(-46.817156 2.2758738 0.54991569)
(-46.027874 0.43552299 -0.045976753)
(-46.407668 2.3072285 0.43497461)
(-51.002088 0.41801826 0.12566715)
(-52.715937 1.3033284 0.6667012)
(-48.287759 0.83174685 0.26647626)
(-49.930958 2.6461816 0.78087196)
(-48.264464 0.78373816 0.33525932)
(-49.217641 2.6755349 0.77730505)
(-48.508561 0.80016052 0.29956481)
(-48.95493 2.6838253 0.71928013)
(-48.648373 0.87416523 0.20067593)
(-48.790472 2.6938875 0.61755752)
(-48.68564 0.94520487 0.082038348)
(-48.679119 2.7059509 0.52545043)
(-48.596405 0.99908435 -0.031247864)
(-48.504774 2.7025572 0.43695372)
(-52.279205 0.86469869 0.18133149)
(-53.552936 1.621134 0.76353338)
(-48.516268 1.289183 0.30241004)
(-49.75179 2.975744 0.8327589)
(-48.236006 1.2963491 0.33106447)
(-48.987739 3.0340843 0.7921695)
(-48.506059 1.2717274 0.25470822)
(-48.828474 3.0243552 0.724718)
(-48.77528 1.2655979 0.15252162)
(-48.763618 2.9848992 0.63070401)
(-48.924416 1.2647671 0.056471614)
(-48.738389 2.9556105 0.54529691)
(-48.921112 1.2742402 -0.023710526)
(-48.63619 2.9258356 0.46531784)
(-52.342571 0.96813499 0.26904276)
(-53.435078 1.6393908 0.87448475)
(-48.182836 1.512363 0.38026912)
(-49.227755 3.132466 0.91281664)
(-47.848046 1.561186 0.36540472)
(-48.427095 3.2154941 0.82691055)
(-48.097333 1.5060769 0.255424)
(-48.342558 3.1911555 0.71978039)
(-48.398992 1.4547236 0.1503802)
(-48.391694 3.1184091 0.62196797)
(-48.611918 1.4129707 0.069919398)
(-48.425019 3.0650351 0.54493972)
(-48.673645 1.3913228 0.0099835913)
(-48.365823 3.0214257 0.47358334)
(-52.047897 0.90277212 0.34098359)
(-53.017718 1.4768037 0.96272313)
(-47.753395 1.6200765 0.4287071)
(-48.615445 3.1415468 0.95804642)
(-47.37329 1.7033206 0.39424173)
(-47.78157 3.2713982 0.84685182)
(-47.599385 1.6266487 0.28808703)
(-47.730361 3.2429132 0.74115298)
(-47.915238 1.5440957 0.19854175)
(-47.855548 3.1428974 0.65883001)
(-48.165216 1.4771085 0.13233255)
(-47.976054 3.0669226 0.59096035)
(-48.263962 1.4386576 0.083849308)
(-47.966555 3.013673 0.5206249)
(-51.596336 0.74546936 0.40225707)
(-52.478006 1.1847696 1.0313242)
(-47.317053 1.6428994 0.44896796)
(-48.030084 3.0174772 0.97556666)
(-46.901848 1.7715987 0.41123522)
(-47.184547 3.2010326 0.84876882)
(-47.094754 1.6973134 0.32457275)
(-47.15319 3.1851325 0.74521084)
(-47.406562 1.6092224 0.25678318)
(-47.327643 3.0829436 0.6719018)
(-47.669665 1.5377463 0.20684557)
(-47.503882 3.0039256 0.6106608)
(-47.778372 1.4993121 0.17000823)
(-47.539817 2.9525102 0.54435506)
(-51.168086 0.52190862 0.43756442)
(-51.942821 0.78753326 1.064837)
(-46.98437 1.5803195 0.41627967)
(-47.604909 2.7596641 0.94480231)
(-46.541755 1.7728974 0.39405828)
(-46.777179 2.9981674 0.82155667)
(-46.679388 1.7259412 0.34411626)
(-46.72567 3.0188421 0.73281208)
(-46.955089 1.656389 0.3026576)
(-46.902031 2.9374417 0.67041704)
(-47.187922 1.6026883 0.26824898)
(-47.083164 2.8728271 0.61269014)
(-47.254283 1.586728 0.24078312)
(-47.12128 2.8378869 0.54693248)
(-50.836114 0.2020744 0.46828762)
(-51.46154 0.31477373 1.0472828)
(-46.868862 1.3436465 0.31670388)
(-47.425105 2.3015466 0.80902533)
(-46.443199 1.560757 0.31107439)
(-46.701069 2.6145325 0.69398109)
(-46.546248 1.569813 0.29028954)
(-46.611992 2.6733339 0.62768912)
(-46.745695 1.5447477 0.26820934)
(-46.722089 2.6308199 0.58189853)
(-46.880489 1.535108 0.24575442)
(-46.829171 2.5999563 0.53467979)
(-46.803184 1.5740378 0.22739176)
(-46.794395 2.5986307 0.47679277)
(-50.681103 -0.17722016 0.48379153)
(-51.095124 -0.12634662 1.0159678)
(-47.096809 0.8949206 0.12649203)
(-47.553745 1.6002495 0.59989503)
(-46.651428 1.1345622 0.11410591)
(-46.925081 1.9289047 0.48106444)
(-46.685891 1.1899055 0.10187378)
(-46.805482 2.0018786 0.42873252)
(-46.762071 1.2136673 0.093607643)
(-46.784279 2.0080393 0.39488936)
(-46.690167 1.2647419 0.089101764)
(-46.743743 2.0247074 0.36080846)
(-46.318755 1.3770808 0.097616064)
(-46.525675 2.0813442 0.32581201)
(-50.468717 -0.28242323 0.52138011)
(-50.759272 -0.67080192 0.98927112)
(-47.543117 0.29028347 -0.14747854)
(-47.855563 0.66100748 0.33470939)
(-47.015225 0.5316409 -0.19379415)
(-47.309157 0.99842678 0.2096948)
(-46.887226 0.62970772 -0.17810312)
(-47.050276 1.1160149 0.16933851)
(-46.72037 0.71360982 -0.15227412)
(-46.888592 1.1882188 0.15104983)
(-46.339953 0.84141197 -0.11626051)
(-46.634887 1.2757217 0.14210243)
(-45.508547 1.0610881 -0.052105302)
(-45.990887 1.441018 0.16025252)
(-50.234631 -0.63491509 0.6600114)
(-50.147783 -1.2907 1.0693199)
(-47.857833 -0.67049615 -0.34718395)
(-47.994602 -0.54988206 0.096347937)
(-47.13502 -0.4946115 -0.48271362)
(-47.51022 -0.26126874 -0.11519161)
(-46.702929 -0.34089837 -0.49229161)
(-47.103879 -0.098552473 -0.16158678)
(-46.108503 -0.15077155 -0.42186198)
(-46.679139 0.068622315 -0.14315023)
(-45.141188 0.12326041 -0.30954026)
(-45.957535 0.28379318 -0.085518979)
(-43.55656 0.53291435 -0.14621102)
(-44.651662 0.6280096 0.028548803)
(-49.733611 -0.77235837 0.89748796)
(-49.476443 -1.6810623 1.2273073)
(-47.725275 -1.3414127 -0.31618702)
(-47.624799 -1.5520008 0.032877643)
(-46.775103 -1.2540492 -0.55989043)
(-47.148925 -1.3481646 -0.30231977)
(-46.113182 -1.0865273 -0.59508398)
(-46.729126 -1.1926968 -0.38311861)
(-45.232371 -0.83884743 -0.54248463)
(-46.098255 -0.98370913 -0.34943129)
(-43.905668 -0.48284041 -0.40084029)
(-45.078501 -0.68788118 -0.2459613)
(-41.852111 0.036883737 -0.19371231)
(-43.420379 -0.24889677 -0.074998835)
(-49.065667 -0.7827208 1.3173959)
(-48.72996 -1.9118843 1.5860286)
(-47.567565 -1.8159267 -0.032839909)
(-47.220815 -2.3758245 0.22946111)
(-46.398867 -1.8215386 -0.42543149)
(-46.704321 -2.3116447 -0.26691625)
(-45.602364 -1.6611485 -0.53897272)
(-46.325344 -2.2114734 -0.41856966)
(-44.618173 -1.4000113 -0.52001306)
(-45.647264 -2.0231104 -0.42453187)
(-43.201692 -1.0252239 -0.39763001)
(-44.566539 -1.7260494 -0.34410363)
(-41.069413 -0.48283769 -0.19888088)
(-42.871846 -1.2737152 -0.17271182)
(-48.300757 -0.68429318 1.7035037)
(-48.000737 -2.0053175 1.968144)
(-47.458764 -2.0472868 0.45055241)
(-46.95478 -2.9025348 0.68413687)
(-46.113135 -2.1158185 -0.061970151)
(-46.352768 -2.9952354 0.03848111)
(-45.190031 -1.9475454 -0.28538316)
(-45.994918 -2.9105124 -0.23758753)
(-44.107776 -1.6628756 -0.31679184)
(-45.334163 -2.7242839 -0.30639276)
(-42.645143 -1.2705975 -0.23258543)
(-44.244591 -2.4338682 -0.26553438)
(-40.531488 -0.71892177 -0.059526814)
(-42.599763 -1.9931295 -0.11913009)
(-47.59702 -0.5157647 1.8652157)
(-47.255277 -1.9749619 2.1941051)
(-47.376461 -2.0528007 0.90710304)
(-46.776993 -3.1068253 1.1798211)
(-45.921675 -2.1385628 0.32266265)
(-46.130604 -3.2318942 0.45038664)
(-44.908207 -1.9528879 -0.019960345)
(-45.753421 -3.1578546 0.04952326)
(-43.76203 -1.6454851 -0.14536809)
(-45.105841 -2.9737946 -0.10810492)
(-42.277149 -1.237647 -0.12885759)
(-44.025191 -2.6855913 -0.11978932)
(-40.190057 -0.67584582 -0.0033104086)
(-42.431337 -2.2488741 -0.018897494)
(-46.972406 -0.34917318 1.763104)
(-46.614589 -1.8506257 2.1530808)
(-47.24246 -1.9216073 1.2549942)
(-46.587565 -3.0391852 1.5758014)
(-45.728276 -1.9782963 0.7014459)
(-45.916933 -3.1134171 0.87043404)
(-44.682466 -1.7702522 0.262614)
(-45.560326 -3.0041098 0.36715998)
(-43.536554 -1.4487951 0.042077143)
(-44.935691 -2.801557 0.11097564)
(-42.078273 -1.0365017 -0.014347231)
(-43.90051 -2.5094584 0.026663862)
(-40.049055 -0.4752903 0.0549445)
(-42.386891 -2.0776663 0.067806899)
(-46.443081 -0.10309799 1.4101381)
(-46.092869 -1.5987621 1.835575)
(-47.017085 -1.6457609 1.3741953)
(-46.34407 -2.7366439 1.7126176)
(-45.62019 -1.6704606 0.86752079)
(-45.74017 -2.7516972 1.0420786)
(-44.689982 -1.4894738 0.3632802)
(-45.459544 -2.647874 0.48877768)
(-43.671449 -1.2024424 0.066315619)
(-44.951748 -2.472394 0.17481779)
(-42.369281 -0.83033347 -0.056764928)
(-44.074219 -2.2191318 0.036577506)
(-40.542096 -0.31870845 -0.066275702)
(-42.758674 -1.8392889 0.023685676)
(-46.068471 0.26683975 0.9248155)
(-45.703706 -1.1900996 1.3643891)
(-46.728846 -1.2663475 1.3616238)
(-46.063507 -2.2572786 1.705554)
(-45.557426 -1.266319 0.98422232)
(-45.588316 -2.234963 1.1503653)
(-44.820876 -1.1379265 0.51262537)
(-45.412194 -2.1661375 0.61684797)
(-44.015802 -0.91548166 0.20571375)
(-45.084123 -2.050759 0.28705425)
(-42.970862 -0.6154213 0.053000695)
(-44.435205 -1.8663331 0.12274997)
(-41.46801 -0.19485874 0.020429827)
(-43.393186 -1.5682715 0.08072185)
(-45.730542 0.71414241 0.47404087)
(-45.404178 -0.6634225 0.87024317)
(-46.417424 -0.80453947 1.2015262)
(-45.785495 -1.6620934 1.5049041)
(-45.435331 -0.81989565 0.88422198)
(-45.443459 -1.6247708 1.0240415)
(-44.885148 -0.74452201 0.46929376)
(-45.3728 -1.5917668 0.56111515)
(-44.30039 -0.59334496 0.1917682)
(-45.192222 -1.5339842 0.27026835)
(-43.523685 -0.37325755 0.045147966)
(-44.763562 -1.4191047 0.12052286)
(-42.360288 -0.051208567 0.00084326981)
(-43.986101 -1.2026274 0.078325987)
(-45.412208 1.3816705 0.26638746)
(-45.141439 0.078266316 0.56899731)
(-46.052968 -0.14618214 1.1522577)
(-45.475199 -0.84220468 1.3278994)
(-45.214533 -0.18360938 0.88172061)
(-45.286142 -0.73711905 0.91114116)
(-44.818609 -0.15167878 0.53892086)
(-45.305414 -0.72950782 0.5342854)
(-44.397614 -0.05544005 0.31794024)
(-45.222591 -0.70789723 0.30167567)
(-43.807848 0.10314768 0.20746194)
(-44.941279 -0.63840344 0.18676517)
(-42.873402 0.35422758 0.18288391)
(-44.331628 -0.47627599 0.16468067)
(-45.01185 2.0884301 0.23192307)
(-44.841778 0.82133981 0.35210926)
(-45.646314 0.65673602 1.0236003)
(-45.111724 0.035259227 0.9866281)
(-44.91925 0.64585543 0.74689877)
(-45.071498 0.16276116 0.60532371)
(-44.661031 0.66493155 0.46874952)
(-45.176196 0.19138155 0.33503645)
(-44.385939 0.7285315 0.30962118)
(-45.157168 0.21034178 0.18440112)
(-43.949695 0.84445486 0.24278424)
(-44.969024 0.26209341 0.12109034)
(-43.189756 1.0442933 0.24358009)
(-44.460851 0.39671853 0.12388111)
(-44.527384 2.598516 0.26154367)
(-44.549653 1.3320339 0.24536998)
(-45.323941 1.216923 0.9440268)
(-44.845721 0.57382666 0.71704397)
(-44.684817 1.1618336 0.64047157)
(-44.888629 0.68971617 0.30030595)
(-44.560759 1.1532048 0.38059715)
(-45.012625 0.7104209 0.063833546)
(-44.353738 1.1957813 0.24501644)
(-45.029998 0.72775532 -0.04316876)
(-43.979869 1.2954478 0.19396965)
(-44.882564 0.77339262 -0.08004523)
(-43.278339 1.4785953 0.19904423)
(-44.415516 0.90333595 -0.073183229)
(-44.022823 2.8790299 0.33215354)
(-44.394339 1.6152927 0.20346533)
(-45.202936 1.5777652 0.94878778)
(-44.794727 0.86562246 0.57337976)
(-44.686251 1.4554342 0.62004913)
(-44.821665 0.93095169 0.10481425)
(-44.604511 1.4106672 0.34863701)
(-44.929851 0.90982536 -0.14919907)
(-44.413138 1.4371411 0.21117556)
(-44.960563 0.90335529 -0.25901828)
(-44.061876 1.5231544 0.15859767)
(-44.828837 0.93583099 -0.30494131)
(-43.386649 1.6953339 0.15706321)
(-44.38048 1.056829 -0.32219161)
(-43.528407 2.9921481 0.41792977)
(-44.350614 1.7502447 0.25223031)
(-45.197666 1.8936815 1.0006498)
(-44.918097 1.0782229 0.55218884)
(-44.843506 1.7209879 0.69128573)
(-44.874246 1.0847604 0.066283744)
(-44.779251 1.6375353 0.41613817)
(-45.039916 0.97676926 -0.19945494)
(-44.627468 1.636127 0.28172747)
(-45.101671 0.9204373 -0.31216768)
(-44.333909 1.6972589 0.2360491)
(-44.986331 0.92480155 -0.36238418)
(-43.735862 1.8408798 0.25193572)
(-44.590886 1.014996 -0.37751091)
(-43.084187 2.9367059 0.46722862)
(-44.428138 1.7283655 0.28738697)
(-45.479131 2.1939676 1.0308048)
(-45.237022 1.3140186 0.5703512)
(-45.053497 2.0524328 0.7604785)
(-45.028973 1.3137465 0.11523641)
(-45.035101 1.9722003 0.49684966)
(-45.29159 1.1632564 -0.14105725)
(-44.981021 1.9459952 0.36287615)
(-45.401185 1.0728661 -0.25927723)
(-44.833124 1.9666473 0.32366615)
(-45.365096 1.0423084 -0.30601945)
(-44.457745 2.0458123 0.3567942)
(-45.112279 1.0824639 -0.30332417)
(-42.781506 2.6757157 0.44777731)
(-44.659868 1.5994081 0.26822751)
(-46.184456 2.3963373 1.0109235)
(-45.902712 1.4897398 0.57452566)
(-45.681607 2.2855559 0.78859824)
(-45.45725 1.4926487 0.18434771)
(-45.640468 2.2226159 0.55211969)
(-45.725024 1.3366751 -0.056880146)
(-45.589662 2.1950967 0.42811546)
(-45.859962 1.2427249 -0.17622709)
(-45.487464 2.2031263 0.39788711)
(-45.875131 1.2008535 -0.21960826)
(-45.214431 2.2513915 0.44220109)
(-45.706317 1.2162782 -0.20399216)
(-42.511225 2.2343618 0.36206343)
(-44.949696 1.302134 0.21082595)
(-47.03524 2.5119603 0.94193753)
(-46.764609 1.6195314 0.56861036)
(-46.586137 2.4639522 0.7789638)
(-46.194027 1.6376055 0.25123416)
(-46.554442 2.4265603 0.56308064)
(-46.475631 1.4816132 0.015676633)
(-46.478465 2.4159235 0.44908809)
(-46.602147 1.3933519 -0.10298148)
(-46.345483 2.4383062 0.43000418)
(-46.60436 1.3545557 -0.14026937)
(-46.054678 2.4917395 0.48598634)
(-46.429588 1.3669309 -0.11353954)
(-42.304712 1.6804754 0.25406587)
(-45.236221 0.93543043 0.14000971)
(-47.867018 2.5403639 0.81325625)
(-47.623291 1.679747 0.52886148)
(-47.501627 2.5781077 0.72941482)
(-46.997467 1.7443995 0.31418797)
(-47.461745 2.5778346 0.54796453)
(-47.277351 1.6019152 0.089334233)
(-47.336523 2.5992899 0.44233337)
(-47.367954 1.5289327 -0.022679061)
(-47.139409 2.6529289 0.43143924)
(-47.322377 1.5063429 -0.049867268)
(-46.796122 2.7277562 0.49026883)
(-47.105794 1.5289804 -0.014747937)
(-42.244012 1.2248398 0.16497695)
(-45.449455 0.63776062 0.090588081)
(-48.463025 2.4831139 0.67632746)
(-48.305634 1.6664863 0.48460189)
(-48.314618 2.6215352 0.67448658)
(-47.756908 1.7977295 0.35208898)
(-48.241133 2.6671402 0.52139143)
(-48.00029 1.6696032 0.14888864)
(-48.056091 2.7280158 0.41336852)
(-48.034309 1.6122657 0.036571914)
(-47.781712 2.8243647 0.3984688)
(-47.921382 1.6134861 0.011863242)
(-47.37235 2.9333055 0.45487496)
(-47.642717 1.6575943 0.050356236)
(-41.969028 0.77887243 0.098645243)
(-45.216967 0.31075439 0.049872564)
(-48.681272 2.2969867 0.5305896)
(-48.558436 1.5326059 0.42999127)
(-48.826103 2.6022281 0.59903154)
(-48.318817 1.8068809 0.36888989)
(-48.782507 2.7257826 0.47274791)
(-48.520507 1.7127144 0.19390584)
(-48.536453 2.8378001 0.35281859)
(-48.454887 1.687376 0.077543353)
(-48.15845 2.987162 0.32243543)
(-48.283714 1.7241604 0.046039607)
(-47.65131 3.1462157 0.36201131)
(-47.914363 1.8046565 0.075869797)
(-40.044561 0.26513155 0.057612347)
(-42.856393 -0.15479092 0.040767944)
(-47.292813 1.8231844 0.38598536)
(-47.202811 1.113349 0.35322853)
(-48.106283 2.4229502 0.51738722)
(-47.899244 1.6995053 0.37195368)
(-48.337148 2.6937579 0.43175123)
(-48.248695 1.7040833 0.23738817)
(-48.069631 2.9059385 0.3076351)
(-48.150046 1.7548666 0.11153712)
(-47.612732 3.1541435 0.24352359)
(-47.853668 1.8777261 0.054956464)
(-47.043639 3.3873242 0.24149188)
(-47.406231 2.0236798 0.058166843)
(-33.629458 -0.453909 0.01264089)
(-35.767918 -0.92810933 0.0055454676)
(-40.237928 0.84196147 0.22594475)
(-40.349152 0.29145766 0.23276953)
(-42.844067 1.8760728 0.36547719)
(-43.26279 1.2504743 0.28646588)
(-44.376353 2.3823839 0.29699688)
(-44.936105 1.5096866 0.19534177)
(-44.370689 2.6886979 0.15078085)
(-45.053228 1.647647 0.056407353)
(-43.816028 2.9976169 0.040275146)
(-44.620104 1.8382938 -0.040519254)
(-43.055043 3.2875289 0.0071632121)
(-43.945218 2.0534626 -0.066843856)
(-22.048395 -1.1199241 0.02825777)
(-23.696662 -1.6679889 0.017017613)
(-26.499941 -0.44765304 0.10358385)
(-26.894679 -0.85235675 0.11622511)
(-29.374092 0.74328503 0.19740418)
(-30.286382 0.36683782 0.16860671)
(-32.089229 1.3993585 0.19534973)
(-33.290256 0.74438962 0.14038486)
(-32.538236 1.6880254 0.11350765)
(-33.885728 0.90302455 0.06304738)
(-31.817507 1.9469149 0.015807816)
(-33.309795 1.0851809 -0.022979032)
(-30.809999 2.1879447 -0.037998117)
(-32.400292 1.2775475 -0.065736448)
(-7.7269841 -0.87061949 -0.088824405)
(-8.4909359 -1.2101564 -0.09836463)
(-9.3273406 -0.92643467 -0.11316703)
(-9.7828519 -1.0051688 -0.1012006)
(-10.399669 -0.28045533 -0.085962624)
(-11.142945 -0.33046166 -0.067658268)
(-11.972244 0.20414759 -0.060910285)
(-12.872592 -0.033030068 -0.047180872)
(-12.699179 0.39923889 -0.039115828)
(-13.645489 0.039060662 -0.045128737)
(-12.614961 0.53507728 -0.034000957)
(-13.580163 0.084812349 -0.047258473)
(-12.162553 0.63690424 -0.042092615)
(-13.121109 0.14709115 -0.046813509)
(-10.926301 -2.2123098 -0.27142589)
(-12.253354 1.0093145 -0.071802145)
(-10.349349 -1.6802958 -0.39766687)
(-11.694665 1.3902337 -0.16838318)
(-9.9493434 -1.1802342 -0.47226811)
(-11.131077 1.7159924 -0.18599007)
(-9.7699364 -0.64762569 -0.41648833)
(-10.649911 2.023828 -0.10185375)
(-10.160379 -0.11256466 -0.21885118)
(-10.407715 2.2338258 0.07179634)
(-11.238006 0.013485605 -0.022359379)
(-10.502418 1.8751792 0.24905149)
(-33.612855 -0.6172856 -0.32850197)
(-35.244336 1.863277 0.015894119)
(-33.040172 -0.35122614 -0.47730767)
(-34.526173 2.0442895 -0.11751945)
(-32.294951 -0.19158688 -0.54079495)
(-33.607637 2.1589305 -0.16949286)
(-31.574179 -0.063678616 -0.52887389)
(-32.64391 2.2286682 -0.13592858)
(-31.229156 0.0048479141 -0.37630201)
(-31.83906 2.1390032 -0.015284395)
(-31.497805 -0.2072362 -0.068946159)
(-31.385776 1.5704182 0.16452013)
(-45.536882 0.51949868 -0.21775738)
(-45.824576 2.3187254 0.30753354)
(-44.92108 0.6713249 -0.35202047)
(-45.121175 2.4034408 0.21340792)
(-44.028615 0.80092292 -0.4136196)
(-44.17016 2.4794161 0.16224154)
(-42.913129 0.92972095 -0.40341278)
(-42.964995 2.5598928 0.15741276)
(-41.685489 0.99446432 -0.29454097)
(-41.598169 2.5532044 0.21535577)
(-40.009786 0.88252955 0.025055199)
(-39.882414 2.2615134 0.36237355)
(-48.340875 1.0296586 -0.14125084)
(-48.18226 2.6869496 0.34373801)
(-47.901774 1.1347572 -0.2200467)
(-47.707132 2.7440215 0.28276633)
(-47.064763 1.2671992 -0.26130897)
(-46.964681 2.8214568 0.24863261)
(-45.584445 1.4834155 -0.2497121)
(-45.62954 2.9634641 0.25108729)
(-43.565008 1.7259043 -0.13170164)
(-43.659288 3.1190575 0.3125144)
(-40.806372 1.8159151 0.1961795)
(-41.014424 3.0582908 0.45139775)
(-48.703658 1.2856691 -0.097837883)
(-48.373021 2.8973692 0.3808091)
(-48.25181 1.3886922 -0.13295102)
(-47.948163 2.9484956 0.32477172)
(-47.429011 1.527127 -0.14243675)
(-47.256608 3.0320713 0.28639645)
(-45.92831 1.7696423 -0.10465273)
(-45.871186 3.2089188 0.28743682)
(-43.501909 2.1252214 0.037129)
(-43.550596 3.4814462 0.36146556)
(-39.976347 2.4514345 0.38742489)
(-40.228119 3.6465353 0.53323159)
(-48.499926 1.3832188 -0.041221562)
(-48.142299 2.9869534 0.39539508)
(-48.046968 1.4830406 -0.052332688)
(-47.721523 3.0431272 0.34145891)
(-47.163899 1.6383689 -0.043318106)
(-46.965667 3.1524168 0.29930453)
(-45.436059 1.9407742 0.015264421)
(-45.356358 3.3934855 0.29422531)
(-42.504399 2.4378761 0.18992946)
(-42.535523 3.7984861 0.38146731)
(-38.181646 3.0159363 0.59275313)
(-38.449567 4.1866843 0.61333978)
(-48.102664 1.422876 0.043483932)
(-47.764412 2.9799368 0.43650324)
(-47.610404 1.5329632 0.042409649)
(-47.324005 3.0502193 0.37370037)
(-46.593854 1.7219657 0.056303107)
(-46.423551 3.2015703 0.31960175)
(-44.504655 2.1138632 0.12015309)
(-44.466478 3.5414288 0.30165272)
(-40.903124 2.7784669 0.31385379)
(-40.967486 4.1217233 0.39493914)
(-35.674632 3.6106049 0.77175652)
(-35.981647 4.7770392 0.68281871)
(-47.598057 1.4913237 0.14038143)
(-47.348224 2.9286107 0.4613891)
(-47.028888 1.6266197 0.1495797)
(-46.857694 3.0238339 0.39908081)
(-45.800197 1.8682511 0.17108768)
(-45.738014 3.234771 0.34106339)
(-43.184464 2.3884774 0.2462863)
(-43.28768 3.7144499 0.32104392)
(-38.785273 3.2452504 0.46012006)
(-39.02196 4.5127979 0.43101826)
(-32.726097 4.294 0.95032932)
(-33.172702 5.4544316 0.7534692)
(-46.988358 1.6116378 0.22011783)
(-46.893059 2.8414587 0.46426973)
(-46.25611 1.8003606 0.24111175)
(-46.255113 2.9854421 0.4056598)
(-44.642881 2.1344546 0.28097816)
(-44.808641 3.287866 0.35891778)
(-41.159887 2.8664741 0.39559793)
(-41.624272 3.9666142 0.3594188)
(-35.76887 3.9607505 0.6580635)
(-36.459308 5.0346512 0.50056521)
(-29.191688 5.1655837 1.1493202)
(-30.063331 6.2200084 0.81965798)
(-46.300391 1.6651198 0.21870551)
(-46.412806 2.6526423 0.40835934)
(-45.169707 1.9628676 0.25785309)
(-45.460682 2.8820619 0.37741339)
(-42.729315 2.4971794 0.34406631)
(-43.379519 3.3464682 0.37353689)
(-37.713915 3.5791069 0.57137715)
(-38.872788 4.355871 0.47316296)
(-30.87955 5.0249277 0.9642837)
(-32.361869 5.79003 0.74534457)
(-23.839206 6.4057955 1.4707524)
(-25.539552 7.2192403 1.0639299)
(-45.344175 1.5905954 0.13069592)
(-45.77019 2.2355778 0.30489181)
(-43.468721 2.0583123 0.23731996)
(-44.176004 2.620478 0.34070167)
(-39.739392 2.8837251 0.4504239)
(-40.842105 3.3861194 0.47344438)
(-32.699858 4.4130539 0.88879303)
(-34.286978 4.8791602 0.80579514)
(-23.842693 6.3195985 1.4775232)
(-26.009429 6.7547553 1.266406)
(-16.155134 7.9930168 1.9261656)
(-18.888868 8.4681892 1.5365887)
(-43.846519 1.4313907 0.06764893)
(-44.498725 1.7848042 0.23630382)
(-41.144213 2.076617 0.28270381)
(-41.704445 2.4545018 0.41418837)
(-36.420809 3.1106187 0.63979663)
(-36.639183 3.6182072 0.74362071)
(-27.904015 4.9431679 1.2640681)
(-28.375066 5.4843486 1.266038)
(-17.259276 7.2676748 1.9667969)
(-19.373262 7.5771839 1.6915701)
(-10.206074 9.1536712 2.1766341)
(-13.611172 9.1922228 1.8103815)
(-40.766378 1.1705634 0.10722946)
(-42.16449 1.2299415 0.23551076)
(-36.454587 2.2043815 0.48518772)
(-38.116833 2.2247784 0.5507164)
(-29.810429 3.721352 0.99600182)
(-31.845656 3.714788 0.96959599)
(-20.595195 5.8296178 1.5941309)
(-23.277466 5.7728545 1.4110547)
(-11.930719 7.8967306 1.9386816)
(-15.305588 7.8542879 1.605971)
(-7.9471559 9.2887741 1.7564433)
(-11.413143 9.089375 1.4360299)
(-38.364937 0.83643359 0.10879905)
(-40.470891 0.47158419 0.18400537)
(-33.090059 2.1072533 0.52156369)
(-35.912139 1.6346274 0.51438061)
(-25.85241 3.7972255 0.96670476)
(-29.32182 3.2650767 0.83002156)
(-17.479288 5.7717454 1.2985357)
(-21.04169 5.3761588 1.0301255)
(-10.319881 7.5405709 1.3113837)
(-13.930071 7.3557063 0.96521445)
(-7.1172638 8.639594 1.052676)
(-10.771191 8.4132377 0.63359749)
(-37.488399 0.32943048 0.092162693)
(-39.972564 -0.58155508 0.068096796)
(-32.130522 1.6285241 0.47727964)
(-35.602092 0.55342298 0.32851228)
(-25.061155 3.2913098 0.84801911)
(-29.365536 2.1294987 0.52792338)
(-17.103207 5.181489 1.056074)
(-21.419851 4.2025972 0.5585745)
(-10.274611 6.8598323 0.95074653)
(-14.490862 6.1207731 0.26007133)
(-6.8155532 7.9084107 0.67519471)
(-11.299703 7.3228216 -0.17809153)
(-37.083187 0.061312764 0.20882795)
(-39.869923 -1.357148 0.10168412)
(-31.89783 1.322926 0.5799377)
(-35.852287 -0.31558431 0.35725925)
(-24.981641 2.9480952 0.9547892)
(-30.161548 1.1054475 0.56393404)
(-17.193972 4.7983914 1.1792814)
(-22.658941 3.0493342 0.59412789)
(-10.421761 6.4706093 1.083819)
(-15.742982 5.0018785 0.21059009)
(-6.6008561 7.6113295 0.74851728)
(-12.105828 6.3752182 -0.46339371)
(-36.836525 0.083412731 0.22612204)