/*--------------------------------*- C++ -*----------------------------------*\
| =========                 |                                                 |
| \\      /  F ield         | OpenFOAM: The Open Source CFD Toolbox           |
|  \\    /   O peration     | Version:  2206                                  |
|   \\  /    A nd           | Website:  www.openfoam.com                      |
|    \\/     M anipulation  |                                                 |
\*---------------------------------------------------------------------------*/
FoamFile
{
    version     2.0;
    format      ascii;
    arch        "LSB;label=32;scalar=64";
    class       volScalarField;
    location    "0.7";
    object      p;
}
// * * * * * * * * * * * * * * * * * * * * * * * * * * * * * * * * * * * * * //

dimensions      [0 2 -2 0 0 0 0];

internalField   nonuniform List<scalar> 
918
(
2.41426
1.45288
0.352326
2.42932
0.0729489
1.33583
0.0631071
1.72981
2.49955
0.514546
0.374841
2.05315
0.903074
0.852321
0.366688
0.19817
2.00647
-0.0646484
2.16508
0.253328
-0.0563401
2.60061
2.30329
2.16943
2.0159
0.399133
0.948976
0.176454
-0.11882
-0.0251812
0.147528
0.193619
0.132474
0.860249
1.22027
1.49261
2.10253
1.41921
0.320794
0.278194
0.157149
-0.062873
1.77245
1.80801
1.01755
1.67565
1.59109
2.18335
2.39077
2.5073
2.30502
2.39222
2.56435
0.80319
0.528531
0.481075
0.535444
0.515228
0.497063
0.402701
0.405696
0.391293
0.394702
1.96787
2.05633
2.06262
2.05978
2.04549
1.3878
1.39689
1.55717
0.66176
0.937585
0.951944
1.00362
0.873363
0.895459
0.889747
0.762045
0.276356
-0.134511
0.644538
0.662037
-0.0203787
0.224532
0.234062
2.00314
2.01252
1.97718
1.96222
1.30608
0.117269
-0.129109
2.17879
2.2077
2.53294
2.33989
2.38016
2.28375
0.270323
0.266373
0.21607
0.274222
0.295224
0.554277
0.862026
2.18854
2.22466
2.03594
2.07683
2.05191
1.73241
2.08281
2.05593
0.780973
0.840884
0.56306
0.723257
0.909731
0.874276
0.99887
0.960618
-0.0749328
0.0150296
0.211406
0.148518
0.201865
2.10251
2.07445
2.1272
2.11228
2.13547
1.31707
1.27389
1.49206
1.54719
0.583356
0.563592
0.0266367
0.0527249
-0.132898
1.57927
1.85561
1.88441
0.820158
1.03669
0.817705
1.13317
1.14734
2.12917
2.1875
2.15339
2.22105
2.21753
2.23214
2.38487
2.3807
2.52794
0.860288
0.929975
0.762817
0.722822
0.25223
0.362029
0.255111
0.472635
0.506991
0.53657
0.53326
0.480271
0.451376
0.479736
0.442531
0.46591
0.350976
0.322685
1.94545
1.93291
1.99965
2.0139
2.08705
2.07666
2.08252
2.08849
1.02127
1.07856
1.01235
0.95049
-0.589782
-2.67495
0.722375
0.737634
0.0357183
-0.0283197
0.00723391
0.0505292
0.0238231
0.0137451
0.33565
0.291187
0.264252
0.315956
2.02375
2.04859
1.29624
1.36623
1.21224
1.19926
2.1708
2.1921
2.21299
2.19966
0.317746
0.31189
0.328042
1.50569
1.20797
1.35361
1.67639
1.58179
1.79807
1.83186
2.04317
2.03083
2.05726
0.778927
0.798724
1.16917
0.991094
1.09181
1.05993
1.12984
1.06936
0.813398
2.02442
2.04764
2.05141
2.14572
2.14629
2.15742
2.09314
2.11382
2.09921
1.13659
0.944598
1.62577
1.56232
1.51457
1.57008
1.55656
1.57739
1.93446
1.89248
1.92016
1.32938
1.29136
0.649769
0.626736
1.86888
1.91696
1.89161
0.978393
0.910301
0.972335
0.974208
0.948094
0.984787
0.800581
0.448514
0.605556
0.823672
0.798637
0.815881
0.427386
0.387381
0.396795
1.37678
1.43509
0.981752
1.10362
1.0843
0.560266
0.809327
0.851817
0.642261
0.801074
0.917598
0.907149
1.56994
1.58968
1.61517
1.51592
1.5402
1.54552
1.37753
1.39944
0.554194
0.602887
0.578001
1.41591
1.48036
1.47171
2.2138
2.31854
-0.0578971
0.112229
2.38626
2.42745
-0.0555333
0.0756916
0.868088
0.766254
1.41339
2.22511
2.20435
2.32048
0.506295
0.779024
0.384975
0.479684
0.417867
2.02985
1.98853
1.91225
0.0127912
0.233207
0.260791
0.412491
2.2997
2.23947
2.37255
2.37856
2.3834
0.0844269
0.0133505
0.0344212
0.235573
0.219167
0.267557
2.14037
2.10382
0.626678
2.35914
2.36592
2.36972
2.27439
2.29722
2.2187
0.20383
0.141732
0.211516
1.70644
1.82318
0.912799
0.377805
1.05607
0.827473
0.65514
0.835264
0.814707
0.880547
0.694824
1.84245
1.70477
1.52103
1.28779
1.52931
1.50293
2.2366
2.20819
2.23197
2.16107
2.26416
2.14186
2.32421
2.24803
2.29462
2.3228
0.544191
0.584027
0.563393
0.409335
0.822258
0.936041
0.727781
0.774545
0.535294
0.357445
0.387242
0.375847
0.453238
0.418001
0.418174
0.469343
0.464161
0.444822
0.388955
0.381232
0.52415
0.442316
1.98534
2.06571
2.02588
2.06696
1.96763
2.04485
1.93007
1.96507
1.95245
1.83253
1.91769
1.87634
0.0307887
0.120141
0.156599
0.200615
0.253892
0.134019
0.213548
0.166877
0.172277
0.178107
0.204589
0.272567
0.459292
0.291386
1.30792
1.12296
0.657185
2.14797
2.25834
2.21246
2.27503
2.29267
2.31098
2.32245
2.21749
2.1094
2.15524
2.10271
2.0989
0.658729
0.499286
0.65028
0.797447
1.37533
2.01979
1.85513
1.72174
1.73218
1.89556
1.67382
1.42497
0.0520456
-0.666377
0.82189
0.485345
0.713252
0.846507
1.21988
0.801617
0.768419
0.840654
0.782016
0.845625
0.944759
1.7288
1.06897
0.993444
1.33904
1.2853
1.06213
1.85746
1.88093
1.66525
1.56997
1.80222
1.7665
1.78386
1.77986
1.78556
1.81657
1.72837
1.58658
1.54684
1.95697
1.80485
1.81977
1.85282
2.18204
2.2419
2.16355
2.14205
2.21372
2.1212
2.11604
2.09717
2.19656
2.22949
2.1917
2.15238
0.589977
0.501999
0.65585
0.534718
0.617041
0.455707
0.674206
0.734902
0.652545
0.825635
0.982528
0.663383
0.622074
0.646159
0.647962
0.860343
0.791472
0.713159
0.55128
0.641391
0.669774
0.67962
0.625804
0.433491
0.465229
0.576201
0.393498
0.508656
0.503954
0.582
0.377842
0.433478
0.365153
0.354323
0.436862
0.533413
0.447129
0.564041
0.187666
0.186184
0.112412
0.24771
0.404528
0.485322
2.09562
2.0475
2.06933
2.05714
2.0863
2.04381
1.8933
2.15988
2.13739
2.0854
1.97588
1.94588
1.96316
1.94364
2.0051
1.98595
2.12535
2.11528
2.02688
1.9927
1.8966
1.98049
1.9313
1.94589
1.92111
0.130466
0.221011
0.173286
0.179366
0.185919
0.20803
0.364122
0.247139
0.355643
0.302673
0.27078
0.215184
0.219265
0.622779
0.718751
0.586229
0.408081
0.340012
1.30362
1.35362
1.18751
1.07321
1.13007
1.25816
1.28237
1.02833
1.08533
1.1371
1.53474
1.42974
2.23786
2.20266
2.1798
2.26063
2.20189
0.880004
1.13234
1.02843
1.38649
1.40551
1.45835
1.27406
1.24119
1.26927
1.34709
1.99033
2.02614
1.98044
2.02747
2.01117
1.7461
1.87699
1.83562
2.0896
1.93964
1.9289
2.01535
1.97322
1.89405
1.86792
1.92563
1.91588
1.87921
1.8872
1.84937
2.01604
1.94725
2.00041
1.93716
1.98025
1.89276
2.03555
2.07321
2.05724
1.86516
1.87995
1.91295
1.93417
1.89225
1.90679
1.89971
1.29274
1.32648
1.32416
1.34539
1.33494
1.16765
1.20034
1.28345
1.30886
1.07258
0.886508
0.602411
1.61815
1.42602
1.10169
0.806962
1.52646
1.65106
1.5709
1.3826
1.35633
1.93014
1.8972
1.92363
1.8128
1.75898
1.71974
1.70395
1.97433
1.64612
1.51124
1.63247
1.41728
1.50167
1.72374
1.64999
1.61035
1.62336
1.93316
1.71021
1.73156
1.84362
1.66885
1.66316
1.80532
1.87723
1.94604
1.91662
1.75131
1.79629
1.78053
1.80579
1.82318
1.81079
2.15205
2.15257
2.14928
2.17434
2.1283
2.13614
2.07827
2.13369
2.18187
2.15565
2.22072
0.348116
0.459096
0.522119
0.429978
0.525151
0.520158
0.731652
0.642276
0.574623
0.65411
0.608154
0.611192
0.583921
0.546652
0.647735
0.645727
0.590308
0.557365
0.973484
1.00275
0.990153
0.979086
0.959851
0.902865
0.962423
0.451258
0.555507
0.502149
0.441134
0.492697
0.343431
0.368622
0.293701
0.425594
0.428725
0.176436
0.298065
0.314704
0.27041
0.338546
0.325989
2.03139
2.04636
2.02942
2.03928
1.99709
2.05941
2.06337
2.14191
2.11508
2.10089
2.0806
2.09427
2.06474
0.302705
0.446738
0.428507
0.275741
0.283384
0.148964
0.132814
1.21931
0.909994
0.925371
0.859915
0.634176
0.733401
1.42335
1.51073
1.53193
1.46538
1.39471
1.34332
1.48194
1.54018
1.15969
1.32597
1.26869
1.32999
1.37374
1.40574
1.34376
1.18865
1.47038
1.63167
1.18685
1.28045
1.47641
1.41628
1.49428
1.4636
1.60222
1.39949
1.34877
1.29055
1.3257
1.44802
1.40874
1.49138
1.50793
1.13901
1.22999
1.20205
1.95688
1.99263
1.99475
1.96574
1.97505
2.00358
1.91393
1.99922
2.02649
2.05287
0.736272
0.782606
0.517663
1.11101
1.44563
1.92857
1.61255
1.87158
1.87463
1.59787
1.80677
1.77222
1.7526
1.8375
1.75115
1.59881
1.67214
1.62756
1.68039
1.61762
1.60317
1.85422
1.79342
1.86991
1.84082
1.83963
1.88667
2.0837
2.18271
2.07642
2.15683
2.10184
2.12897
0.650368
0.560787
0.63501
0.600882
0.567372
0.496676
0.210554
0.261907
0.41711
0.39826
0.373716
0.35249
1.07611
1.10318
0.834837
1.01489
0.880304
0.709724
0.793334
0.835318
0.961382
0.979806
1.29968
1.26806
1.37998
1.3185
1.13615
1.33396
1.54667
1.54531
1.56325
1.42818
1.44171
1.49319
0.930026
1.25462
2.05282
2.22296
1.77425
1.62578
1.50127
1.68502
1.86947
1.74319
1.76123
1.86285
1.79738
1.35489
1.36926
1.47109
1.48526
1.40196
1.33253
1.3319
1.43662
1.49382
)
;

boundaryField
{
    wall-4
    {
        type            zeroGradient;
    }
    velocity-inlet-5
    {
        type            zeroGradient;
    }
    velocity-inlet-6
    {
        type            zeroGradient;
    }
    pressure-outlet-7
    {
        type            fixedValue;
        value           uniform 0;
    }
    wall-8
    {
        type            zeroGradient;
    }
    frontAndBackPlanes
    {
        type            empty;
    }
}


// ************************************************************************* //
