/*--------------------------------*- C++ -*----------------------------------*\
| =========                 |                                                 |
| \\      /  F ield         | OpenFOAM: The Open Source CFD Toolbox           |
|  \\    /   O peration     | Version:  2206                                  |
|   \\  /    A nd           | Website:  www.openfoam.com                      |
|    \\/     M anipulation  |                                                 |
\*---------------------------------------------------------------------------*/
FoamFile
{
    version     2.0;
    format      ascii;
    arch        "LSB;label=32;scalar=64";
    class       surfaceScalarField;
    location    "0.7";
    object      phi;
}
// * * * * * * * * * * * * * * * * * * * * * * * * * * * * * * * * * * * * * //

dimensions      [0 3 -1 0 0 0 0];

oriented        oriented;

internalField   nonuniform List<scalar> 
1300
(
3.75095
5.62643
-7.06349
3.75095
-6.47015
5.62643
-6.46171
6.46171
-1.38566
1.38566
1.90826
1.84269
-5.86303
5.86303
-5.68316
5.68316
-3.09107
3.09107
-5.37826
5.37826
-5.29994
5.29994
3.85469
-3.85469
-5.3535
5.3535
-2.1115
2.1115
-6.48212
6.48212
3.21224
-3.21224
-5.66614
5.66614
-1.46328
1.46328
-0.517601
4.26855
3.23335
3.23335
-2.75066
2.75066
-5.54966
5.54966
6.22723
-6.22723
9.93089
-9.93089
-2.86741
-3.24732
1.31144
-7.96529
-5.1587
-5.1587
-8.50232
8.50232
-2.87589
2.75054
3.2156
-3.2156
-2.69533
2.69533
-6.19066
-0.271049
-6.19066
6.60914
-0.147432
6.60914
-1.6172
0.231532
-1.6172
4.78658
-4.78658
1.16239
0.223269
1.16239
3.19923
-3.19923
-1.88304
3.7913
1.86792
-1.78666
6.05521
-1.9643
3.80699
-4.98925
4.98925
-5.98042
0.117386
-5.98042
5.8737
-0.0106702
5.8737
-5.57517
5.57517
-5.69618
0.013022
-5.69618
5.58417
0.0989887
5.58417
3.32479
-3.32479
-3.13333
0.0422673
-3.13333
3.081
0.0100694
3.081
0.313378
5.31305
-5.93981
8.69034
-5.31305
-0.0652056
5.2967
0.0815541
5.2967
-5.25847
-0.0414731
-5.25847
5.25214
0.0478017
5.25214
3.58961
0.265076
3.58961
-4.20394
0.349252
-4.20394
-3.1731
-3.27088
-5.42529
0.0717974
-5.42529
-2.18592
0.0744138
-2.18592
2.06554
0.0459654
2.06554
-3.96326
3.96326
-6.66707
0.184943
-6.66707
3.17268
0.0395551
3.17268
1.82544
1.92551
5.5764
-5.5764
2.36416
-5.67271
0.00657853
-5.67271
-5.71795
-4.21295
5.71795
-0.0518137
-0.915011
-0.548272
-0.915011
3.25873
-0.0253759
3.25873
2.94043
0.14057
-2.94043
0.189769
3.7208
-3.7208
2.21866
0.532003
2.21866
-5.53133
5.53133
5.33773
-0.0855889
-5.33773
-0.211929
6.22915
-0.0019243
6.22915
-6.15713
-0.0700962
-6.15713
3.29014
-6.53746
-3.31763
5.24035
0.113152
-5.24035
0.0816416
3.22426
-0.00865966
3.22426
-3.18501
3.18501
-3.19537
-0.0202282
-3.19537
-2.64631
-0.0490192
-2.64631
2.745
-0.0496651
2.745
-5.73057
-0.460091
-5.73057
-6.71338
0.0463116
6.71338
-0.104233
3.11078
-3.11078
-1.75666
0.139469
-1.75666
-5.23073
-0.499838
5.23073
-0.444151
-4.6168
-0.16978
-4.6168
-3.219
0.0236267
3.219
-0.0197715
3.17389
0.0848341
-3.17389
-0.0253326
-1.87677
3.80228
-1.87418
3.7421
-4.66825
-0.320996
-4.66825
5.18117
-0.191921
5.18117
6.36868
0.113442
-6.36868
0.388262
5.6945
0.179207
5.6945
-5.46637
-0.108804
-5.46637
5.55907
0.0161002
5.55907
5.65113
0.0433656
-5.65113
-0.0450528
5.75851
-0.174334
5.75851
3.32451
0.000287036
3.32451
-3.20381
-0.120985
-3.20381
3.17325
-3.17325
3.08319
0.0900578
-3.08319
-0.0501428
-11.1268
11.0567
-0.0748744
-11.0519
5.22183
5.22183
3.04262
0.546993
3.04262
-4.65512
0.451183
-4.65512
3.32059
-6.63821
3.21575
-6.38885
3.20995
-11.1752
3.41311
-6.68399
5.57675
-5.57675
5.402
0.174746
-5.402
-0.0232912
-2.18982
0.00389799
-2.18982
-3.78421
-0.179044
-3.78421
4.33597
-0.372709
4.33597
-3.22132
3.22132
-3.18416
-0.0371633
3.18416
-0.0114721
5.60357
0.154941
-5.60357
-0.069147
0.967651
0.194743
-0.967651
0.0526397
3.85396
-0.133158
3.85396
-3.49157
-0.229233
-3.49157
-2.16834
-0.0214804
2.16834
0.0503207
-5.91087
0.37954
-5.91087
-11.1484
0.0964715
-11.0668
-6.06066
-6.06066
2.44166
11.132
-3.22643
0.0226183
3.22643
-0.00216853
3.13667
0.0846491
-3.13667
-0.0483426
-3.19169
0.0184435
3.19169
-0.00667916
-2.54262
-0.103697
-2.54262
-2.86394
2.86394
-2.85242
-0.011516
2.85242
-0.107423
3.21282
-0.102039
3.21282
1.94109
0.124452
-1.94109
0.184422
-4.20611
-0.410696
-4.20611
5.24051
-0.0593451
5.24051
-3.41016
-0.081415
3.41016
-0.0856488
0.0329412
11.0237
-5.25477
-0.00369524
5.25477
-11.0218
11.0181
-2.57471
0.0320948
2.57471
0.467907
5.10202
0.429307
-5.10202
0.446897
5.54465
0.0144196
-5.54465
-0.0320969
-3.52087
-0.263344
-3.52087
-4.50579
-0.16246
4.50579
-0.169824
-11.1664
-0.17629
11.3427
-11.1186
6.08716
0.141993
-6.08716
11.1601
-2.90125
-0.209522
2.90125
-0.0373158
3.33596
-0.123143
3.33596
4.13109
-0.277128
-4.13109
-0.0750171
-5.45222
-0.0141468
5.45222
-0.211708
-3.50427
-0.0165958
3.50427
-0.168317
-4.20118
4.17581
1.85403
-3.35286
-3.1846
-7.56581
1.87676
1.92552
4.24092
-7.07272
-4.10252
-6.99108
6.70852
-6.26163
-6.38956
6.65463
7.66003
-7.82981
-5.75883
5.74736
6.31306
-6.33283
1.86197
1.92933
10.7061
-10.5887
-10.1807
9.85973
10.0802
-10.0672
10.4083
-10.5171
-11.9556
11.97
-5.57267
5.61494
-6.5811
6.46012
-6.63415
6.5485
-3.19667
-3.19218
8.78017
-8.70837
11.4929
-11.4863
-11.2313
11.4162
3.28042
0.895382
3.36526
-1.95118
3.81315
-1.85581
3.70983
3.31757
-6.51425
3.32064
-6.50524
5.89124
5.60164
-5.83943
-1.72638
-5.79998
5.79132
-5.72145
5.71477
11.0432
-11.3142
-1.84929
3.77862
-1.89281
3.81833
-3.36018
-2.39866
3.32062
0.9203
5.46127
3.3189
-5.57442
-1.41666
-7.56057
7.28344
-7.69125
7.46202
0.185232
5.40719
-5.59242
5.73489
-1.85546
7.26265
4.85306
5.30424
5.61643
-5.18712
0.645194
-6.23761
-6.44954
-2.30485
2.44432
2.04591
-1.82264
6.59301
1.06702
6.14886
-5.2866
-2.54321
-5.69729
3.79497
1.95239
3.75781
4.01947
2.29359
4.04309
2.96626
-3.07967
0.11341
-3.03892
6.00518
0.698952
-5.43758
-4.51728
6.8693
3.83675
6.85863
-7.37511
-3.21355
-6.98685
-6.15446
-4.02627
-6.31692
6.48602
3.37372
6.2941
-7.78942
7.57771
6.59552
3.48473
6.6945
-6.61391
-3.45331
-6.65896
10.2895
-2.85644
-7.43304
-6.94273
-5.01285
6.92663
3.48167
7.35247
4.61754
7.32037
3.56045
6.72904
-7.04211
2.02926
-3.73039
-1.84228
-3.78054
3.56697
2.04797
3.57704
-4.20005
-2.38105
-4.17743
-4.20008
-2.43407
4.19979
2.26032
-4.25004
-3.44121
4.33145
2.21704
3.15377
-7.25629
3.53022
-6.72239
-6.17171
-2.53666
-6.195
4.06363
2.63457
-6.6982
-2.45062
10.6822
-5.08059
8.95586
-7.21127
-4.27503
-7.28042
-8.81201
-2.41926
-8.7657
-5.18498
4.92163
-5.66092
5.28821
10.479
-5.84455
-4.63448
-3.99868
-2.33415
4.02401
-0.658753
-3.63976
3.75316
0.173394
3.88323
4.77861
4.11986
-3.78661
-1.93484
-3.83495
3.7344
1.98036
3.75285
8.56097
2.48221
8.41353
-7.61477
-3.69946
-8.07486
5.41243
-5.46145
2.90708
-2.92856
5.07554
2.38648
-4.94238
-2.61819
5.84054
-3.05196
-2.78858
-11.5686
7.11823
4.45034
-4.30592
1.42897
2.89225
-4.49443
-1.89513
4.14517
1.15907
8.2773
6.38217
-5.17214
5.55168
6.17058
6.08499
-0.364554
3.71337
-3.68128
6.20215
-0.965548
-5.23661
5.76919
-6.26903
-2.30567
-6.04661
3.74094
-0.120163
-0.0620264
-0.486246
-1.92321
-0.381638
-1.73879
1.0858
0.960104
1.28055
1.04556
1.39876
-2.48134
0.192347
2.28899
-1.43578
-1.63029
-4.03912
-0.188634
4.22775
5.48224
1.8012
-5.40722
-0.290069
2.60273
-2.55676
-1.61376
-2.42536
1.17486
-2.78862
-3.06855
-2.20149
5.27004
-3.30128
-0.53367
3.21663
0.541179
-3.78139
-2.01859
3.80162
0.241475
-2.94963
5.97332
-3.02369
-4.88446
2.55307
3.45211
4.50546
-4.61385
2.33233
2.28152
-1.16174
5.77623
1.0824
5.95544
-8.99138
5.77783
7.8299
3.58631
-7.94334
0.95649
-8.03489
9.31977
-8.34011
-0.979665
4.86293
4.45684
5.29964
5.17939
-3.36752
8.66716
-1.26318
-7.07693
9.29806
-5.71175
5.43254
-11.1443
-10.6119
3.53499
-6.67804
8.34588
-1.66784
-2.46962
-5.3198
9.14766
-0.914953
-8.2327
5.37914
-5.08796
-5.38902
10.477
-7.9444
8.84234
-2.58351
-6.25882
-6.55568
-3.96142
6.56983
1.00788
-9.70262
11.7319
-2.97358
5.80546
0.889043
5.63113
3.89401
-5.93471
2.0407
4.05039
-6.6339
2.39059
-8.3253
-4.76212
9.44187
-4.67974
-7.29878
-6.6478
-0.65098
2.07442
9.65746
-6.69196
5.34769
1.34426
3.19327
0.559576
-3.28333
-0.497206
0.33112
4.40578
-4.7369
3.90816
4.04873
3.43891
0.96687
3.77546
2.01586
-3.77329
-0.40414
-3.8556
1.42154
-1.59528
-3.47689
4.89843
-3.93526
0.458369
-2.59737
-3.38879
5.98617
-4.43965
2.86582
3.1075
4.84619
-4.72752
1.33873
-2.35016
-2.37736
2.59653
-4.19181
1.83217
3.06626
4.04921
0.608003
4.61368
4.82819
-7.24825
0.525857
8.14709
-6.73043
1.5606
5.75977
-6.90829
0.26049
-5.93451
1.11325
-6.19385
-5.58494
6.40012
-8.81937
-4.74417
8.12666
0.286872
-8.02243
-0.743271
-3.67577
-1.5092
-3.69237
-1.92684
-3.73408
-5.29436
-1.00851
-4.28585
3.91312
-4.20538
-2.11154
4.37521
0.913001
-4.44262
4.2331
-4.414
4.29086
0.150865
3.6023
4.27072
1.93657
-2.44056
4.37714
-6.60549
9.0877
-10.7362
4.13069
4.49119
-8.19065
-6.24499
3.32923
2.0832
3.27956
5.51382
-6.8467
1.33288
-6.24437
7.30826
-1.06389
-9.73627
3.49191
-4.22245
2.57178
0.3353
2.57568
0.666493
2.27921
-2.9457
-2.26207
-2.21175
-2.21654
-3.30327
5.51981
0.953993
-3.21168
2.25768
-3.29166
4.24565
-0.170692
-3.04099
4.9354
-2.65619
5.2707
-3.46235
1.80835
3.18435
5.25752
-2.07318
4.12166
-1.73518
1.7998
-3.87298
-1.50347
-2.92624
4.97421
-3.05993
3.5183
-0.237308
3.75561
-3.94624
0.894275
-0.507329
3.5414
3.73117
3.97184
-3.00497
2.68971
-4.42489
-1.18327
-3.81689
-0.750633
-0.827719
-5.03152
5.85924
4.84965
-5.67737
-2.73351
5.45561
-2.72211
4.58528
-3.17407
-1.41121
-2.71651
-2.74494
2.8202
0.893169
5.47845
0.301489
-3.47556
-3.37979
-2.91188
4.79251
1.40964
-0.873178
5.32351
-2.01907
1.95705
0.60343
0.677118
1.07194
-0.46851
-0.243512
1.31545
-0.729758
1.8577
0.745022
-1.98216
0.243368
-1.8097
2.98457
0.479286
-1.43939
0.97088
2.37009
-3.33564
4.88364
-1.56134
-3.3223
7.25374
1.86475
-3.42609
4.18186
-4.30203
2.85212
-3.04075
-0.573973
-4.876
-3.80898
-2.15314
4.41082
-3.36667
5.16788
1.34227
-4.87781
6.22007
-3.47232
1.27083
-2.67501
3.42003
-0.773326
-1.90168
2.48941
2.78063
-2.81761
0.392248
-0.328194
1.9753
-2.30349
-0.813323
-2.2491
-4.49031
4.73179
-2.18041
4.51274
2.19672
-1.91002
6.42276
1.77452
-3.68453
-3.10995
-3.64362
-1.40302
3.10244
-0.736798
-5.92216
-6.99562
5.8788
0.0766414
-9.02285
10.0799
-1.05705
-5.1861
-0.591725
5.45466
-7.25354
0.619638
-4.86295
5.21695
6.29934
6.37598
-8.06007
-0.172627
-4.68636
1.31132
-5.99768
5.76816
-2.78904
6.32403
-6.79112
4.67959
-5.87812
5.34437
-0.653317
5.2861
-3.2454
2.14694
-6.10836
-5.10048
6.98714
-3.50241
7.87618
-4.001
11.8772
-6.97458
7.04363
4.83354
-1.3169
-5.96351
-6.86619
5.54928
0.177446
5.80857
4.88836
-2.8725
4.48422
2.08864
-4.4388
-2.10317
-6.34726
1.90846
-3.23977
-1.70776
3.61622
3.13843
3.698
1.23886
-3.2008
6.63197
-7.28295
-1.95223
-3.63271
6.73322
-1.18394
3.73566
-7.36838
-2.45819
5.08019
-0.517859
-4.56233
0.764355
-5.50852
2.52404
-8.03256
6.29534
-7.03861
1.24789
-5.47034
-3.19473
-3.23204
-1.27434
-3.13966
-4.4833
3.20896
-0.991394
3.2417
-5.44754
4.92968
-1.86072
5.06968
-3.30036
-0.392009
3.46867
0.822186
5.89187
-0.344331
-5.90066
-1.69587
5.72588
-4.03
3.09664
-5.37585
0.350026
3.58069
3.67305
-7.32163
-0.869023
-6.76969
-2.36316
4.44637
3.09245
7.9421
1.0954
4.96901
-0.522642
6.0644
2.75692
2.6495
-3.80653
5.13941
2.05271
6.1834
-0.807149
2.6155
1.76853
1.84295
0.713814
2.22367
1.5075
3.11794
0.172245
-2.03951
2.92643
-5.83831
-0.549132
-5.29132
1.36331
3.91626
-2.55295
4.67901
-3.26937
0.64901
2.7056
-2.26675
-0.438846
-2.53101
-0.309702
1.00575
-0.969921
1.9408
2.01465
-2.94655
0.415541
-0.0934353
-3.71555
3.13419
-2.74194
0.0386883
6.25876
-2.33862
0.035126
-1.06779
-2.21398
-2.59561
2.35225
6.02081
0.401951
2.99712
5.13374
3.11515
0.242648
4.21371
-5.88155
-4.1116
-6.05418
-0.286016
5.16864
1.74566
7.9118
6.5792
5.39526
-1.97311
-9.25606
7.37316
-2.23375
6.30927
-1.74694
-6.28562
6.52037
2.56733
-6.80724
-0.231364
-6.51699
-8.75073
-0.279192
5.20887
-5.61267
5.22066
3.71146
0.574392
-2.73062
-0.501424
2.74214
-0.0926362
5.97177
-1.08252
-5.44452
6.52704
-2.83374
2.28461
4.6332
0.690315
4.19435
0.924984
-4.51954
-7.07248
-1.16384
-2.1718
-4.48614
-0.258384
-1.75626
3.89448
-1.60987
2.48327
4.91717
5.56618
-1.56362
-4.11374
4.28573
-1.80246
3.76372
)
;

boundaryField
{
    wall-4
    {
        type            calculated;
        value           uniform 0;
    }
    velocity-inlet-5
    {
        type            calculated;
        value           uniform -3.75095;
    }
    velocity-inlet-6
    {
        type            calculated;
        value           uniform -5.62643;
    }
    pressure-outlet-7
    {
        type            calculated;
        value           nonuniform List<scalar> 8(7.06349 6.47015 6.11473 6.65385 6.44398 6.60776 6.53633 6.62305);
    }
    wall-8
    {
        type            calculated;
        value           uniform 0;
    }
    frontAndBackPlanes
    {
        type            empty;
        value           nonuniform List<scalar> 0();
    }
}


// ************************************************************************* //
