/*--------------------------------*- C++ -*----------------------------------*\
| =========                 |                                                 |
| \\      /  F ield         | OpenFOAM: The Open Source CFD Toolbox           |
|  \\    /   O peration     | Version:  2206                                  |
|   \\  /    A nd           | Website:  www.openfoam.com                      |
|    \\/     M anipulation  |                                                 |
\*---------------------------------------------------------------------------*/
FoamFile
{
    version     2.0;
    format      ascii;
    arch        "LSB;label=32;scalar=64";
    class       volVectorField;
    location    "0.7";
    object      U;
}
// * * * * * * * * * * * * * * * * * * * * * * * * * * * * * * * * * * * * * //

dimensions      [0 1 -1 0 0 0 0];

internalField   nonuniform List<vector> 
918
(
(0.778676 -0.269469 0)
(0.0563362 2.9585 0)
(-0.161606 1.81227 0)
(0.655475 0.2589 0)
(0.103125 1.73373 -4.05551e-20)
(-0.160569 2.74839 -6.29349e-19)
(1.10414 1.80577 -1.16301e-20)
(0.460081 0.275267 -7.80344e-21)
(0.885995 0.00452432 0)
(0.0239531 1.79514 0)
(0.010792 1.74497 0)
(0.947548 0.0064608 0)
(-0.0305216 3.02787 0)
(0.0518718 2.9639 0)
(-0.0892282 2.66629 -1.06515e-19)
(-0.015565 1.72298 -3.93879e-20)
(0.681463 0.163474 6.25512e-19)
(0.210476 2.06733 -1.43567e-20)
(1.0087 -0.00639058 0)
(0.0234495 1.73861 0)
(0.591959 0.0276486 2.85977e-20)
(0.669775 -0.097791 0)
(0.891045 0.0286287 0)
(1.03522 0.0498943 0)
(0.860275 0.0424347 0)
(0.0634955 3.051 0)
(-0.0284907 2.91773 2.05154e-19)
(-0.234185 1.72424 0)
(-0.034622 1.66497 0)
(-0.214161 1.71317 0)
(0.0598356 1.73417 0)
(-0.058367 1.67349 3.12029e-20)
(-0.0286746 1.73354 0)
(-0.074101 3.06589 -1.64389e-23)
(-0.0426569 2.95989 5.14503e-19)
(0.0324249 3.0353 0)
(0.985717 -0.00532646 0)
(0.817985 1.31425 1.84717e-19)
(1.14723 1.68237 1.45395e-19)
(1.25587 1.58413 -8.9368e-20)
(0.976074 1.88202 1.90022e-21)
(0.905624 1.96731 9.62324e-21)
(0.507426 0.301857 7.60354e-21)
(0.530287 0.277168 0)
(1.3724 0.792132 0)
(0.435218 0.311921 3.19936e-20)
(0.397296 0.27305 -3.32447e-20)
(0.983128 -0.0132797 0)
(1.0769 -0.00486686 0)
(0.886328 -0.0108952 0)
(0.995814 -0.0926312 0)
(1.0391 -0.0271139 0)
(0.93366 0.00808005 0)
(0.0213384 1.63085 -3.16408e-19)
(0.0335783 1.82423 0)
(0.042728 1.82129 0)
(-0.0227251 1.80609 0)
(-0.00903159 1.80217 0)
(0.0074744 1.72662 0)
(0.021104 1.75835 0)
(0.0119308 1.74762 0)
(-0.00784208 1.7427 0)
(-0.0107385 1.70711 0)
(1.01721 0.00349019 0)
(0.964036 0.0186439 0)
(0.960683 0.00243658 0)
(0.952621 -0.00285408 0)
(0.942718 -0.00085251 0)
(0.023652 2.90609 2.0362e-19)
(0.096606 2.89432 0)
(-0.0221903 2.8869 0)
(-0.0806947 3.09529 1.51452e-24)
(-0.115377 2.94267 -3.16112e-19)
(0.022718 3.03933 0)
(0.0810798 2.94476 0)
(0.0228328 3.00783 4.72021e-25)
(0.0472829 2.93278 0)
(0.0780063 2.99637 0)
(0.00975003 2.93719 0)
(0.100732 2.77094 0)
(-0.172232 2.77006 0)
(0.00037533 2.72365 9.77382e-20)
(-0.0900858 2.65686 0)
(-0.003823 1.73229 0)
(-0.0148237 1.74 3.88417e-20)
(-0.00183606 1.71958 -4.51506e-20)
(0.717123 0.163054 -2.17422e-19)
(0.725158 0.145596 -2.11449e-19)
(0.686193 0.213736 -6.46938e-19)
(0.660458 0.203999 -4.11126e-19)
(0.177713 1.39464 0)
(0.3437 2.11764 -1.70987e-21)
(0.448846 2.11123 1.34756e-20)
(0.994247 -0.00772136 0)
(0.969502 0.00228791 0)
(0.893712 0.00824818 0)
(1.04254 0.0116374 0)
(0.912692 0.0716928 -2.39984e-18)
(0.965322 0.122611 1.81936e-18)
(0.0158499 1.7571 0)
(0.00980661 1.73904 0)
(0.0160871 1.68009 0)
(-0.029265 1.74799 0)
(-0.00981156 1.7718 0)
(0.759378 0.138038 1.50044e-20)
(0.325742 0.272325 0)
(1.01627 0.0209066 0)
(0.993058 -0.00431871 0)
(0.938252 0.0389452 0)
(0.885851 0.110866 0)
(0.886295 0.00903984 0)
(1.14712 -0.00695051 0)
(0.835009 0.0205144 0)
(0.815599 0.0223632 1.0041e-18)
(-0.0549578 2.87106 1.97304e-19)
(-0.0642762 3.03343 0)
(-0.060278 3.13974 0)
(-0.00536271 2.96139 0)
(0.0184501 2.97553 1.89539e-19)
(0.0344369 2.94434 0)
(0.0129147 2.96245 -5.90333e-19)
(-0.0361894 2.94409 1.96563e-19)
(0.0384741 1.74459 0)
(-0.00830844 1.74837 0)
(0.00156675 1.73096 -1.26504e-21)
(-0.0469314 1.74628 0)
(0.0249328 1.70746 0)
(0.997332 -0.00450331 0)
(0.990536 -0.0136767 0)
(0.975159 0.000397717 0)
(0.996493 -0.0122066 0)
(0.974992 0.0169266 0)
(0.892446 1.39244 -2.29643e-19)
(0.908548 1.31544 0)
(0.825334 1.35083 2.7545e-20)
(0.782838 1.26612 0)
(1.20556 1.44971 3.61975e-20)
(1.35121 1.28964 -1.01109e-19)
(0.577018 2.11402 0)
(0.789667 2.02259 0)
(0.679056 2.08142 0)
(0.548155 1.28456 -1.45821e-19)
(0.551486 0.300151 0)
(0.563114 0.250486 1.10436e-19)
(1.23935 1.22122 0)
(1.26135 0.976104 0)
(1.37423 1.03745 1.48581e-19)
(1.33053 0.745121 0)
(1.38289 0.6338 1.62945e-20)
(0.987823 0.0247923 0)
(0.991016 -0.0096548 0)
(0.988649 -0.00941962 0)
(0.995541 0.00477476 0)
(0.991588 -0.0314868 0)
(0.966399 0.0111875 0)
(1.04702 0.00846709 0)
(1.00648 0.000495434 0)
(0.896582 0.0060297 0)
(0.0259013 1.61438 1.66388e-19)
(-0.0150638 1.5524 0)
(0.0301099 1.67438 2.95646e-19)
(0.0249844 1.66894 -2.67953e-19)
(0.10185 2.03211 1.4978e-20)
(0.0313745 1.92886 0)
(0.0238334 1.95893 0)
(-0.00467784 1.79834 0)
(0.00237836 1.74032 0)
(-0.0057637 1.72179 -1.40565e-21)
(-0.0291012 1.70498 0)
(-0.00943783 1.74459 -8.06225e-20)
(-0.00466991 1.72109 1.56358e-19)
(0.0241013 1.75158 0)
(0.0215801 1.75722 0)
(-0.00103436 1.72869 0)
(-0.00263644 1.75073 0)
(-0.00776237 1.76447 0)
(1.03107 0.00873605 0)
(1.01721 0.000755344 0)
(1.00673 0.0132437 0)
(0.97993 -0.0106563 0)
(0.971628 -0.00431681 0)
(0.972346 0.00269751 0)
(0.96305 0.012554 0)
(0.940059 -0.00108699 0)
(0.0164069 3.05293 -1.7755e-21)
(0.00417614 3.05493 0)
(0.0517794 2.99096 0)
(-0.0427975 2.9291 0)
(0.697208 2.99542 0)
(1.04257 2.36858 6.76853e-20)
(-0.0692843 2.75655 0)
(-0.0734331 2.74045 0)
(-0.00232542 1.78366 0)
(-0.0206757 1.69168 0)
(0.00408149 1.74027 0)
(0.0524336 1.71715 -1.76249e-21)
(0.032027 1.7866 0)
(0.0190375 1.77078 0)
(0.0215567 1.73473 8.40318e-21)
(0.0122899 1.74445 5.48559e-20)
(-0.00908612 1.72629 4.61188e-20)
(0.0110209 1.6843 0)
(0.747007 0.153982 3.40442e-19)
(0.743837 0.0877514 -3.35407e-19)
(0.203964 1.4257 0)
(0.239941 1.36635 -8.66028e-20)
(0.141959 1.48689 -2.69306e-19)
(0.0945086 1.49048 2.69135e-19)
(0.986795 -0.00639315 0)
(0.988461 -0.0167665 0)
(0.984341 0.00312125 0)
(0.973855 0.00574782 0)
(0.0143594 1.77005 0)
(0.0228573 1.74272 0)
(0.00943335 1.71109 0)
(0.385687 0.285731 2.77231e-19)
(0.396342 0.244576 -2.72089e-19)
(0.343989 0.261981 0)
(1.18937 0.0948647 3.60075e-20)
(1.24304 0.0422822 0)
(1.11702 0.0562151 0)
(1.06647 -0.00640681 0)
(0.771511 0.0951825 0)
(0.812088 0.064763 -1.60177e-18)
(0.759556 0.0552852 5.98786e-19)
(-0.0657855 2.96494 1.73932e-19)
(-0.00947429 2.94242 -1.48683e-20)
(0.029503 3.01579 -4.1453e-21)
(0.0696035 3.03076 1.21051e-19)
(-0.035118 2.96341 7.15582e-21)
(-0.10232 2.90432 -2.77873e-23)
(-0.0877889 3.02784 -1.22462e-19)
(0.11473 3.06886 8.65893e-20)
(0.0939322 3.09777 -1.18736e-19)
(1.00341 -0.00657659 0)
(0.990919 0.0377163 0)
(0.983039 0.0224031 0)
(0.988344 -0.00624402 0)
(0.97887 0.00170489 0)
(0.956994 -0.00085916 0)
(0.982104 -0.0108861 0)
(0.987639 0.00799088 0)
(0.978796 0.00498168 0)
(0.987093 1.3746 -2.20829e-19)
(0.956041 1.35705 0)
(0.644747 1.24346 4.57728e-20)
(0.68761 1.33446 3.59088e-19)
(0.764396 1.34191 -2.13756e-19)
(0.722056 1.28816 4.1407e-19)
(0.51009 1.32927 7.16641e-19)
(0.485811 1.28344 1.34261e-19)
(0.655121 0.2407 4.33137e-19)
(0.602457 0.273583 1.09755e-19)
(0.617935 0.235056 2.0847e-19)
(1.28911 0.564463 -2.1509e-19)
(1.33922 0.384735 -2.38582e-19)
(-0.00252052 1.69077 1.26824e-19)
(-0.00234727 1.66131 0)
(1.07224 0.0187737 0)
(1.04326 0.0158449 0)
(1.04174 0.000489681 0)
(-0.000360782 3.05201 0)
(0.015612 3.00645 2.66078e-19)
(-0.0227151 2.98137 0)
(-0.0228684 2.94212 -2.66016e-19)
(-0.035531 3.03016 6.24801e-20)
(0.0136829 3.0365 0)
(1.02293 1.41765 3.71006e-20)
(0.982786 1.64153 -1.87419e-19)
(0.887584 1.41609 7.69269e-20)
(-0.0477425 2.91011 -1.82692e-19)
(-0.042706 2.82718 0)
(-0.069583 2.7943 0)
(-0.00735507 1.7375 -4.45304e-21)
(0.0264713 1.73306 -1.31523e-19)
(-0.0227511 1.71528 -3.47896e-21)
(0.262341 1.36928 2.81445e-19)
(0.262594 1.30828 -1.90711e-19)
(0.0111733 1.58779 2.1593e-19)
(0.0699395 1.54469 -2.42791e-19)
(0.0443339 1.52608 1.37199e-20)
(-0.0830725 3.07251 -3.16072e-19)
(-0.102281 3.0643 3.65713e-19)
(-0.00508574 2.98655 1.70731e-19)
(0.051743 3.02421 -1.55779e-19)
(0.151376 2.93158 -1.73996e-19)
(-0.0232362 3.02377 -4.78278e-19)
(-0.105386 3.01739 4.88061e-19)
(0.546859 1.30067 0)
(0.581565 1.31422 -7.48716e-19)
(0.561719 1.23214 3.31296e-19)
(0.430401 1.34667 3.86343e-19)
(0.423804 1.29957 -6.02667e-19)
(1.24778 0.204303 1.36615e-19)
(1.30046 0.369519 0)
(1.33123 0.254562 -1.2743e-19)
(-0.0174931 1.7361 -1.56321e-21)
(0.00399447 1.7015 0)
(0.025002 1.70835 0)
(0.290338 1.38202 -1.00345e-19)
(0.363137 1.35981 -2.28972e-19)
(0.378651 1.33646 4.28245e-19)
(0.972112 -0.0102287 0)
(0.993965 -0.0498897 4.49821e-19)
(0.0571429 1.74396 0)
(-0.043709 1.72117 0)
(1.02595 -0.0323963 7.31153e-21)
(0.892256 -0.00870695 9.12698e-19)
(0.0331808 1.80149 2.36789e-21)
(0.0811122 1.7981 0)
(-0.0886898 2.88577 1.89801e-19)
(-0.0517096 2.48193 0)
(1.18888 0.651183 -1.28588e-19)
(1.01655 -0.0149846 -4.06631e-21)
(0.972918 0.0354047 0)
(0.946279 0.00172117 -1.44434e-21)
(0.0202011 1.87592 0)
(0.147292 1.70402 0)
(-0.028757 1.7784 0)
(0.0803773 1.75758 9.29197e-20)
(0.0112197 1.74368 6.94451e-20)
(0.981978 -0.00307036 4.25919e-21)
(1.01239 0.0728258 0)
(1.04403 0.0393113 0)
(-0.0245266 1.68176 0)
(0.0278604 1.74355 0)
(-0.0272931 1.7547 0)
(0.236075 1.94736 7.6519e-20)
(0.990965 -0.0764144 0)
(0.995111 -0.0512135 0)
(0.946782 0.0488467 5.69975e-19)
(0.994316 0.0413911 -6.81288e-19)
(1.03976 -0.0645424 0)
(0.025741 1.73753 0)
(-0.00300076 1.73772 0)
(-0.00489302 1.78613 0)
(-0.0065907 1.78696 0)
(-0.0820425 1.78176 0)
(0.00444877 1.70975 0)
(0.987406 0.0142281 0)
(1.0084 -0.0196277 -7.04533e-22)
(0.880332 1.64456 -7.14905e-20)
(0.948118 -0.0700303 -5.68249e-19)
(1.03599 0.025668 6.85129e-19)
(1.04001 0.0242253 0)
(0.982407 -0.00103201 5.44391e-19)
(1.03472 0.0840105 -6.76761e-19)
(0.987278 0.0294273 0)
(0.0241855 1.76335 0)
(0.0777832 1.77488 4.38153e-20)
(-0.0171647 1.7353 -3.18435e-20)
(1.12131 0.264041 7.57227e-19)
(1.07026 0.0754172 0)
(-0.43347 2.90522 -2.75773e-19)
(-0.0963808 3.25226 -1.25956e-20)
(-0.164207 2.86656 5.42062e-19)
(-0.0386994 2.87771 -9.57006e-20)
(-0.0330451 2.85809 0)
(-0.0662468 2.96443 8.63881e-20)
(-0.134129 3.04416 2.61727e-19)
(-0.0961417 2.97224 -1.60509e-19)
(-0.154092 3.04773 0)
(0.617452 0.279141 0)
(0.459928 0.332097 0)
(1.07056 0.838418 3.81023e-19)
(1.15313 0.942718 -4.80018e-19)
(1.12438 0.571992 0)
(1.12377 0.596666 0)
(1.01892 0.0188332 -1.02652e-18)
(0.970704 -0.003454 1.29327e-18)
(1.03248 -0.0827442 0)
(1.00836 -0.0451209 0)
(0.919771 0.0654856 0)
(1.03318 -0.0359792 0)
(1.02579 0.0225835 0)
(1.00135 -0.025228 0)
(0.994715 -0.0948885 0)
(0.955539 -0.00370704 0)
(0.0432262 1.87167 0)
(0.0214281 1.78406 0)
(0.085185 1.86304 0)
(0.178365 1.90269 0)
(0.150496 1.6746 0)
(0.0246086 1.6811 -1.61338e-19)
(0.117786 1.70478 0)
(0.0200747 1.66816 1.08604e-19)
(0.100149 1.74815 -1.32473e-19)
(0.0064202 1.78591 0)
(0.0686265 1.74417 0)
(-0.0337142 1.76548 0)
(-0.0477895 1.7426 0)
(-0.00700071 1.72961 -6.6494e-20)
(-0.0436243 1.77991 9.8343e-20)
(0.0496329 1.77885 1.01545e-19)
(-0.00438686 1.75753 0)
(0.0038674 1.74782 -1.78036e-19)
(0.00308638 1.72003 -9.88724e-20)
(0.0283367 1.79437 4.95518e-20)
(-0.144884 1.69424 -1.23541e-19)
(0.0400561 1.70467 -1.25269e-19)
(0.98952 -0.0130269 9.30818e-19)
(0.97836 -0.0419449 -1.18651e-18)
(0.979296 0.0306002 -9.48034e-19)
(0.918582 0.00897139 1.20628e-18)
(1.05584 0.0812337 0)
(1.04047 -0.00673443 0)
(1.05504 0.0342872 0)
(1.05997 -0.00875413 0)
(1.03476 -0.0110525 0)
(1.09376 0.0693518 0)
(1.06538 0.0309778 0)
(1.05432 0.0261055 0)
(-0.166523 1.72482 -3.56992e-21)
(0.0226013 1.75463 0)
(0.00123964 1.73319 0)
(0.0289397 1.7464 2.53856e-20)
(0.0578662 1.77168 -1.31059e-21)
(-0.00922641 1.79407 4.081e-20)
(-0.0696277 1.7094 -4.09787e-20)
(-0.0515639 1.75504 0)
(-0.00423717 1.74498 0)
(0.0744703 1.69061 0)
(-0.0303418 1.76102 0)
(-0.0727152 1.78475 0)
(0.393464 1.91666 -1.77927e-19)
(0.458692 1.99176 -4.14258e-20)
(0.330749 1.43862 -6.97954e-20)
(0.23984 1.5846 1.99414e-19)
(0.327841 1.73905 5.86789e-20)
(1.03566 0.0234424 0)
(0.996141 0.0298491 0)
(1.02174 0.0533012 0)
(0.949241 -0.0408344 0)
(1.02195 0.00780637 0)
(0.957089 0.0303429 0)
(0.982031 0.0917696 0)
(0.983023 0.0589486 0)
(0.998123 -0.0234066 9.8337e-19)
(1.00091 -0.0285018 -1.25552e-18)
(1.00603 0.0233089 -9.69688e-19)
(0.976752 0.0238419 1.22508e-18)
(0.880416 1.66656 0)
(0.815555 1.73251 -1.26617e-19)
(0.893703 1.57994 -1.26966e-19)
(1.01062 1.48028 1.68769e-19)
(0.847408 1.52796 7.25436e-19)
(0.844432 0.108026 3.90009e-19)
(1.10169 0.0849127 0)
(1.15669 0.23896 -6.12059e-19)
(1.13419 0.0948823 -2.57746e-20)
(0.966548 0.107413 0)
(-0.788717 2.63269 2.76498e-19)
(-0.714878 2.57616 -4.1234e-19)
(-0.675012 3.20116 1.32124e-19)
(-0.789297 1.53213 -1.17258e-20)
(-0.153672 2.53787 1.07673e-19)
(-0.0179318 2.78621 0)
(-0.00879706 2.71474 -1.40989e-19)
(-0.61877 2.6334 -7.08032e-19)
(-0.467917 2.41497 0)
(-0.0547076 2.98917 1.23174e-20)
(-0.0831306 3.05443 -1.36288e-19)
(-0.0221054 3.05982 1.99621e-19)
(-0.0344489 3.06876 0)
(-0.0840335 2.98355 0)
(1.03225 1.75747 0)
(0.271682 1.07866 -3.13197e-19)
(1.11052 1.16409 1.56777e-19)
(0.932491 1.41782 0)
(0.802279 1.14159 -1.46698e-19)
(1.0391 1.10524 1.35805e-20)
(0.160737 -0.103523 -2.84627e-19)
(0.634127 0.277406 -4.67384e-21)
(0.631457 0.307503 2.36931e-19)
(0.419513 0.398432 1.42743e-20)
(0.365315 0.319281 -5.48763e-19)
(0.559314 0.409484 0)
(0.568857 0.482871 3.87399e-19)
(0.564224 0.368938 0)
(0.459213 0.376677 0)
(0.502601 0.350095 0)
(0.595665 0.717794 3.1549e-19)
(1.18375 0.229559 -6.20985e-19)
(1.15648 0.468692 0)
(1.2194 0.285337 0)
(0.742465 0.204675 3.76209e-19)
(0.624353 0.680061 -2.38966e-19)
(0.540783 0.526627 4.48713e-19)
(0.827949 0.375649 -5.37383e-19)
(0.995647 -0.0137242 6.7818e-19)
(1.00116 0.100734 -6.9261e-19)
(1.00519 0.0509725 0)
(1.03545 -0.0157307 0)
(1.01068 -0.0300553 -6.4834e-19)
(1.00793 0.0268416 6.43325e-19)
(0.975415 0.0385354 0)
(0.95029 0.0065604 0)
(1.00367 -0.00264673 0)
(0.99728 -0.0248462 0)
(1.02405 0.00832054 0)
(0.960477 -0.0253454 0)
(0.0959127 1.79517 0)
(0.102736 1.79544 0)
(0.135948 1.81569 -1.39707e-19)
(0.245519 1.95601 -5.24426e-20)
(0.236607 1.91743 -1.30832e-19)
(0.168576 1.9316 2.03133e-19)
(0.0382656 1.76419 0)
(0.195721 1.72047 -1.53242e-19)
(0.0307811 1.77118 0)
(0.296618 1.68962 -8.39702e-20)
(0.226208 1.59647 2.66442e-19)
(0.254305 1.73445 1.33553e-19)
(0.186893 1.82853 -6.73511e-20)
(0.149534 1.78544 5.40925e-20)
(0.192159 1.8012 -1.87849e-19)
(0.215719 1.742 0)
(0.251096 1.67797 1.4102e-19)
(0.0434968 1.66723 -5.94132e-20)
(0.079821 1.72265 0)
(0.00813953 1.73992 1.44494e-19)
(-0.0360603 1.70414 0)
(0.0142827 1.69474 -1.21062e-19)
(-0.00851463 1.682 0)
(0.0269628 1.72975 -8.50827e-20)
(0.0755934 1.73819 0)
(0.0362084 1.74517 0)
(0.0270016 1.7858 9.67264e-20)
(0.0485983 1.75096 9.50281e-21)
(0.0571863 1.75639 1.59616e-19)
(0.000164883 1.71278 1.32427e-21)
(0.128539 1.67345 4.61172e-20)
(0.0647323 1.65557 2.99908e-20)
(-0.0266237 1.7452 0)
(-0.092593 1.74208 0)
(-0.014217 1.74353 1.27262e-19)
(-0.0550347 1.7572 1.39539e-19)
(0.0358482 1.78997 -1.7058e-19)
(-0.00192578 1.7619 0)
(0.0597096 1.76072 -1.18562e-19)
(-0.0645984 1.69689 3.59598e-20)
(-0.0186034 1.78319 -9.16616e-21)
(0.122674 1.79517 -5.51077e-20)
(0.0672976 1.69817 -2.71835e-20)
(-0.016455 1.71695 1.35021e-19)
(0.986413 0.0423121 -6.58252e-19)
(0.992259 -0.0782366 6.38878e-19)
(0.993572 0.0472451 0)
(0.953228 -0.0414408 8.73362e-19)
(0.914455 0.114127 -9.60676e-19)
(0.955895 0.0348809 1.0489e-18)
(0.96707 0.000734328 -1.11524e-19)
(1.04619 -0.0811998 0)
(1.02469 -0.0076354 6.30531e-19)
(1.0163 -0.041642 -6.27047e-19)
(0.984131 -0.0106948 -3.58086e-20)
(0.987563 0.0570144 2.98147e-19)
(0.956691 0.0699467 0)
(0.975639 0.093042 -1.06317e-19)
(0.977195 0.0191802 0)
(0.980933 0.0594258 0)
(1.03328 0.0811533 0)
(0.961261 0.0055929 0)
(0.997719 0.0505362 2.21535e-19)
(1.03726 0.0111525 -4.88767e-19)
(1.00582 -0.0111346 -2.33128e-19)
(1.01563 0.012947 -2.60852e-19)
(1.05751 0.0383505 5.09387e-19)
(1.00784 0.0513704 0)
(1.00975 0.0172729 0)
(0.0353966 1.80185 -4.17174e-20)
(0.138887 1.71238 -6.63205e-21)
(0.0385885 1.65464 0)
(0.0351524 1.79282 4.25781e-20)
(-0.125333 1.68421 9.88035e-21)
(-0.0018714 1.71954 -1.05738e-20)
(-0.0777732 1.76274 8.7118e-20)
(-0.0107108 1.76549 -4.87776e-21)
(0.114043 1.72064 2.59412e-20)
(-0.00331976 1.76592 -4.08498e-20)
(-0.08149 1.77861 4.94222e-20)
(-0.00140814 1.70079 -2.96701e-21)
(-0.0203874 1.79546 7.09293e-20)
(0.471437 1.79633 1.00566e-19)
(0.342123 1.78847 2.05884e-19)
(0.756627 1.79108 1.22423e-19)
(0.591328 1.9182 3.97997e-20)
(0.648499 1.94883 0)
(0.302163 1.46155 8.31891e-20)
(0.252782 1.41306 1.02141e-19)
(0.230099 1.51496 1.22833e-20)
(0.356219 1.52877 -3.11371e-19)
(0.382019 1.49028 2.57222e-19)
(0.254492 1.48163 0)
(0.173118 1.47491 -1.6909e-19)
(0.0845595 1.63202 4.11155e-19)
(0.115305 1.61035 2.0583e-21)
(0.0309069 1.56347 -5.28166e-19)
(0.650717 1.36946 4.55647e-19)
(0.468913 1.43736 0)
(1.01801 0.101977 2.18653e-20)
(0.98878 -0.0924695 -1.85572e-20)
(0.985471 -0.0973136 -3.31404e-19)
(1.04072 0.0232947 3.34736e-19)
(0.994732 0.034241 0)
(0.78682 1.59546 0)
(0.80607 1.57569 0)
(0.912539 1.3496 0)
(0.650393 1.40887 0)
(0.845873 1.51687 2.3116e-21)
(0.797201 1.50329 0)
(0.554614 1.46372 4.09667e-21)
(0.455646 1.47037 0)
(0.585317 1.49018 -3.49077e-19)
(0.573986 1.44656 2.2507e-19)
(0.810088 0.117596 0)
(0.766959 0.11916 1.02589e-19)
(0.87752 0.122124 6.40066e-19)
(0.834091 0.0857907 -2.31563e-19)
(0.846698 0.117189 -7.24477e-19)
(1.06579 0.189703 -7.66847e-19)
(0.819647 0.366309 -1.20461e-20)
(0.897665 0.205524 5.73618e-19)
(0.92502 0.162958 5.64627e-19)
(0.857969 0.175216 -8.71361e-19)
(0.876219 0.265462 1.05467e-19)
(0.760162 0.276028 -2.58949e-19)
(0.787975 0.256118 0)
(0.946662 0.125323 4.33523e-19)
(0.998383 0.165584 0)
(0.936146 0.177461 0)
(1.03423 0.171823 2.51959e-19)
(0.972439 0.286169 -1.57677e-21)
(0.907885 0.1474 -1.41751e-19)
(1.00719 0.139764 0)
(1.00182 0.0469733 4.91714e-19)
(0.957584 -0.0350898 6.05243e-19)
(1.02958 0.0569892 -4.76764e-19)
(0.99807 0.0990335 -4.06766e-19)
(0.946628 -0.00537088 -6.19082e-19)
(0.920235 0.190093 0)
(0.958223 0.031072 0)
(0.899619 0.0747954 -3.68805e-19)
(0.872628 -0.0311257 1.37316e-19)
(1.01034 0.114499 5.44798e-19)
(1.02716 0.105349 -7.0222e-19)
(0.945917 0.11386 6.16095e-19)
(0.902698 0.165539 0)
(1.00425 0.144198 0)
(0.931929 0.0716823 -2.84841e-19)
(0.968947 0.0617579 -4.50673e-19)
(0.620538 1.51119 1.74758e-19)
(0.621194 1.53905 -1.8032e-19)
(0.736045 1.53475 -2.64591e-19)
(0.720964 1.69793 6.91063e-20)
(0.841916 1.58634 -6.92488e-19)
(1.03414 1.68545 2.18234e-19)
(1.01756 1.56963 -3.00903e-21)
(0.846047 1.66061 -2.90261e-19)
(0.801077 1.6346 4.30182e-19)
(0.832684 1.94854 9.49582e-20)
(0.998091 1.9814 -9.68295e-20)
(1.00027 2.02091 0)
(0.40009 1.36317 -3.39036e-20)
(-0.775984 1.77053 1.93187e-19)
(-0.517802 0.264211 1.95778e-19)
(-0.470862 0.46179 4.81493e-20)
(0.301269 0.385038 3.12557e-19)
(0.256851 0.363924 -5.67871e-19)
(0.209396 0.42014 4.58822e-19)
(0.140038 0.292794 -1.27413e-19)
(0.291883 0.221908 2.93593e-19)
(0.711636 0.293513 -2.20314e-19)
(0.645902 0.318603 0)
(0.673351 0.269611 2.51147e-22)
(0.5025 0.479745 2.09619e-19)
(0.36507 0.529916 -7.56969e-19)
(0.321154 0.446395 -9.66358e-21)
(0.419854 0.393708 0)
(0.462263 1.01978 2.86486e-19)
(0.747519 0.95643 3.28147e-19)
(0.610379 1.13758 -3.79634e-19)
(0.722693 0.954993 -1.47038e-19)
(0.923966 0.937524 -5.05469e-20)
(0.923456 1.09409 5.18643e-20)
(0.700112 0.672984 -5.26867e-19)
(0.77764 0.945985 1.37515e-19)
(0.964849 0.852676 0)
(0.870685 0.759505 -1.93458e-19)
(0.848552 0.255908 1.8888e-19)
(1.01148 0.392227 3.31214e-19)
(0.983643 0.257823 3.03521e-19)
(0.902146 0.421007 -3.59703e-19)
(1.03007 0.37799 0)
(1.04175 0.367949 0)
(0.73986 0.455495 -1.36401e-20)
(0.771872 0.233377 0)
(0.68863 0.247924 2.62074e-19)
(0.825883 0.2889 -2.20112e-21)
(0.869317 0.495281 1.48957e-18)
(0.755167 0.559231 3.91857e-19)
(0.761893 0.483131 -3.79147e-19)
(0.703725 0.416806 4.05819e-19)
(0.671119 0.538791 2.24994e-19)
(0.613256 0.415993 -2.18375e-19)
(1.01055 0.078888 5.38365e-19)
(0.952664 -0.0659675 0)
(0.973798 -0.0125645 3.58018e-19)
(0.890678 0.0940441 -8.05329e-19)
(1.02958 -0.019314 3.85836e-19)
(0.963027 0.0374788 -8.15635e-19)
(1.03586 -0.0158338 0)
(0.994034 -0.017842 -1.6986e-19)
(1.01524 0.0469942 4.23822e-19)
(0.976583 0.00606327 -2.16913e-19)
(0.942196 -0.0747126 1.59769e-19)
(-0.051479 1.7953 0)
(0.179006 1.71696 0)
(0.0140384 1.78324 0)
(-0.00318124 1.82882 0)
(0.0295972 1.79815 2.3921e-19)
(0.0478223 1.81838 -6.3336e-20)
(0.0763238 1.66061 -7.14618e-20)
(0.137012 1.67884 8.26636e-20)
(-0.0759146 1.75245 -1.85795e-19)
(0.0654226 1.67992 1.4089e-19)
(0.0256201 1.7902 9.80031e-21)
(0.0113803 1.76855 -1.66397e-19)
(-0.0130159 1.77674 -2.3489e-20)
(0.154127 1.75143 -2.09105e-20)
(0.0218564 1.68938 -1.55889e-19)
(0.0565378 1.68142 0)
(0.0650631 1.71828 8.2534e-20)
(0.0358293 1.76081 5.69432e-20)
(0.139974 1.63912 -7.32736e-20)
(0.12987 1.63649 0)
(0.164519 1.56736 -3.0164e-19)
(0.144166 1.59463 2.15564e-19)
(0.195584 1.64207 -1.98219e-19)
(0.194329 1.63355 1.26972e-19)
(0.0249579 1.50498 0)
(0.0552815 1.65626 -1.43126e-19)
(-0.0249464 1.68154 -1.92696e-19)
(-0.00520646 1.68705 0)
(0.0276304 1.81108 2.15151e-21)
(0.0216901 1.76599 7.15525e-20)
(0.005831 1.79264 1.30643e-20)
(0.0517418 1.76272 -2.04049e-19)
(-0.0304796 1.77451 5.55045e-20)
(-0.0271021 1.62077 7.27392e-20)
(0.0569969 1.79841 0)
(-0.0608873 1.80977 0)
(-0.027744 1.7759 6.99631e-20)
(0.0616011 1.76299 -2.16163e-20)
(-0.0660245 1.78186 0)
(-0.0040936 1.76294 5.48171e-20)
(0.0723784 1.75978 -1.06992e-19)
(0.946007 0.150254 0)
(1.06059 0.0716768 -5.79499e-20)
(0.954542 0.0474221 -4.00916e-19)
(0.923 0.020021 0)
(0.928866 -0.0780797 0)
(1.02728 -0.0607789 -1.22033e-20)
(0.969207 -0.0930499 6.51372e-19)
(0.966719 -0.015028 8.05753e-19)
(0.990239 0.00285681 0)
(1.02284 -0.0058569 0)
(0.978341 -0.0171373 3.92776e-19)
(0.968148 0.0272189 0)
(0.954558 0.0756668 0)
(-0.0841267 1.79844 0)
(-0.0295418 1.64805 1.54112e-20)
(-0.0352516 1.68266 1.85568e-20)
(0.00860952 1.78675 0)
(0.144738 1.75821 4.54493e-20)
(0.0625646 1.78273 -1.5541e-20)
(0.0306631 1.73614 0)
(0.420819 1.61389 0)
(0.376329 1.54195 -3.73974e-19)
(0.362606 1.55271 0)
(0.469626 1.75592 4.38401e-19)
(0.55305 1.76335 0)
(0.515118 1.80724 -1.81106e-19)
(0.531518 1.49106 -1.03223e-20)
(0.59733 1.40476 -5.4271e-19)
(0.598085 1.41099 6.73241e-19)
(0.472018 1.40954 1.23995e-19)
(0.48403 1.45319 0)
(0.566497 1.46629 0)
(0.611808 1.40797 0)
(0.463772 1.38231 -4.48392e-19)
(0.411286 1.50512 -2.93105e-19)
(0.362576 1.46787 -6.74271e-20)
(0.470353 1.54766 5.4356e-20)
(0.337826 1.46238 0)
(0.469103 1.43526 0)
(0.420307 1.40197 -1.22169e-19)
(0.404215 1.42073 0)
(0.504079 1.49934 0)
(0.587198 1.42001 -3.83904e-19)
(0.447798 1.27697 -2.51762e-20)
(0.716592 1.49912 0)
(0.653861 1.55752 5.99389e-19)
(0.683716 1.29009 -1.31395e-19)
(0.944455 1.20084 0)
(0.750002 1.07384 2.25121e-19)
(0.428535 1.47649 0)
(0.464497 1.24455 0)
(0.732741 1.47488 -2.58705e-19)
(0.705956 1.53075 -1.83271e-19)
(0.710799 1.49258 3.17095e-19)
(0.714293 1.51343 -9.97189e-20)
(0.721615 1.46308 0)
(0.694631 1.47964 1.31265e-19)
(0.728834 1.47992 -2.17227e-19)
(0.75391 1.42258 -1.67806e-21)
(0.594286 1.52678 0)
(0.594985 1.55171 -1.52694e-19)
(0.625279 1.51889 0)
(0.809615 0.161874 0)
(0.792574 0.190711 0)
(0.731082 0.20841 0)
(0.784436 0.272278 -4.13428e-19)
(0.75314 0.203783 2.31202e-19)
(0.960121 -0.0275853 -2.84078e-19)
(0.893588 0.0667154 0)
(0.870169 0.0414931 1.20047e-19)
(0.853961 0.13881 4.80857e-19)
(0.820327 0.0289718 -3.07471e-19)
(0.891591 2.2514 1.05293e-19)
(0.84466 2.06412 0)
(0.802418 2.30029 2.1657e-19)
(0.177561 2.41277 -1.88903e-19)
(0.350655 1.98707 -2.4386e-19)
(0.238682 1.4452 4.05964e-19)
(0.30507 1.54034 0)
(-0.119807 0.917956 -7.18904e-20)
(0.0206087 1.08918 5.12306e-19)
(-0.297884 0.687948 -1.09119e-19)
(0.0724102 0.527722 1.19853e-19)
(0.364788 0.577909 2.71478e-19)
(0.536098 0.557311 0)
(0.24087 0.807837 0)
(0.131921 0.78021 0)
(0.875142 0.761385 1.54098e-19)
(0.805124 0.579678 -3.74928e-19)
(0.869745 0.640904 3.253e-19)
(0.829111 0.486964 -2.98377e-19)
(0.978648 0.626497 0)
(0.937759 0.641113 -9.87293e-20)
(0.737974 0.365317 -5.35127e-19)
(0.717232 0.312489 -6.61715e-19)
(0.619737 0.428992 4.15176e-19)
(0.653382 0.377962 -3.87858e-19)
(0.734763 0.357675 -3.17931e-19)
(0.717926 0.337918 3.93306e-19)
(1.00308 0.00437697 -4.14832e-19)
(1.0449 0.0244858 8.65132e-19)
(1.02165 0.056144 5.18863e-19)
(1.06782 -0.0744346 -6.27824e-19)
(0.866618 -0.00701129 0)
(0.857368 0.00495607 -1.03599e-18)
(0.0941299 1.67819 4.05601e-20)
(-0.0180001 1.70926 0)
(0.121173 1.76847 2.63861e-19)
(0.0716635 1.72687 -2.36836e-19)
(0.069305 1.76061 1.33109e-19)
(0.0997753 1.80378 0)
(0.0412942 1.80797 0)
(0.0588493 1.67338 -2.22212e-20)
(0.00517871 1.62137 1.99486e-20)
(0.0874827 1.61269 5.80236e-21)
(-0.177448 1.75317 -4.46675e-20)
(0.0169873 1.75111 2.20584e-20)
(0.547152 1.5822 -4.39733e-19)
(0.599738 1.58893 4.64551e-19)
(0.459234 1.71822 -2.34603e-19)
(0.592356 1.61752 2.08879e-20)
(0.621131 1.7342 0)
(0.626365 1.76546 -1.95336e-19)
(0.56502 1.73683 1.90781e-19)
(0.553191 1.6943 2.27103e-19)
(0.614295 1.7001 0)
(0.655327 1.65943 0)
(0.549725 1.42847 4.46298e-19)
(0.291214 1.52372 5.94289e-19)
(0.270408 1.48132 -4.06781e-19)
(0.228925 1.54436 -7.01417e-20)
(0.347457 1.50967 1.44504e-19)
(0.248725 1.3964 -3.42942e-19)
(0.602872 1.42512 -3.85201e-19)
(0.685378 1.43893 0)
(0.599802 1.41124 -4.29919e-19)
(0.703757 1.45334 0)
(0.695139 1.51716 0)
(0.462688 1.81294 -2.745e-19)
(0.51922 1.96733 -2.15543e-19)
(0.394127 2.01796 2.52232e-19)
(-0.470182 1.52725 0)
(-0.263871 1.46006 -1.89779e-19)
(0.158122 1.58719 -2.54342e-19)
(0.363701 1.741 0)
(0.178388 2.0138 1.76687e-19)
(-0.131851 2.05337 0)
(0.487327 0.942254 -6.04319e-19)
(0.607042 0.975843 8.05428e-19)
(0.670857 0.736739 -7.91315e-19)
(0.340707 0.771068 -7.19285e-20)
(0.413658 0.745267 -2.8848e-19)
(0.614643 1.7287 1.62935e-19)
(0.662876 1.67836 -3.49784e-19)
(0.485753 1.79081 4.74623e-19)
(0.492347 1.6711 -3.09021e-19)
(0.628742 1.59967 -4.37336e-19)
(0.65387 1.68318 -3.17855e-20)
(0.6605 1.62428 3.5297e-19)
(0.544928 1.65621 2.53076e-20)
(0.56658 1.5471 1.87918e-19)
)
;

boundaryField
{
    wall-4
    {
        type            noSlip;
    }
    velocity-inlet-5
    {
        type            fixedValue;
        value           uniform (1 0 0);
    }
    velocity-inlet-6
    {
        type            fixedValue;
        value           uniform (0 3 0);
    }
    pressure-outlet-7
    {
        type            zeroGradient;
    }
    wall-8
    {
        type            noSlip;
    }
    frontAndBackPlanes
    {
        type            empty;
    }
}


// ************************************************************************* //
