/*--------------------------------*- C++ -*----------------------------------*\
| =========                 |                                                 |
| \\      /  F ield         | OpenFOAM: The Open Source CFD Toolbox           |
|  \\    /   O peration     | Version:  2212                                  |
|   \\  /    A nd           | Website:  www.openfoam.com                      |
|    \\/     M anipulation  |                                                 |
\*---------------------------------------------------------------------------*/
FoamFile
{
    version     2.0;
    format      ascii;
    arch        "LSB;label=32;scalar=64";
    class       volScalarField;
    location    "0.04";
    object      alphat;
}
// * * * * * * * * * * * * * * * * * * * * * * * * * * * * * * * * * * * * * //

dimensions      [1 -1 -1 0 0 0 0];

internalField   nonuniform List<scalar> 
3072
(
0.0003434
0.000724729
0.000750516
0.000746995
0.00071892
0.000691748
0.000758594
0.00124681
0.00179602
0.00199572
0.0020828
0.00215188
0.000559008
0.00143925
0.00196229
0.00185673
0.00118581
0.00100457
0.00183877
0.00229326
0.00354221
0.00496003
0.00698061
0.0090847
0.000732006
0.00262723
0.00318393
0.00273956
0.00244818
0.00266264
0.00410427
0.00605718
0.00883071
0.0120435
0.0151183
0.0179064
0.000920925
0.00377039
0.00364686
0.00324849
0.00355331
0.00518752
0.00800856
0.011196
0.0148389
0.0184888
0.0217525
0.0246017
0.0010647
0.00459827
0.0046972
0.00462607
0.00594331
0.00886931
0.0122982
0.0159669
0.0197854
0.0234148
0.0266534
0.0294712
0.00119079
0.00566721
0.00641103
0.00684592
0.00904676
0.0123754
0.0159874
0.0197051
0.0234229
0.026917
0.0300561
0.0328009
0.00128648
0.00643205
0.00785931
0.00924261
0.0120877
0.0155707
0.0191253
0.0227207
0.0262056
0.0294535
0.0323851
0.0349728
0.00138976
0.00764482
0.00978071
0.0122892
0.0155203
0.0189204
0.0222896
0.0255806
0.0286776
0.031523
0.0340885
0.0363545
0.0015159
0.00902019
0.0128519
0.0163635
0.0196759
0.0227267
0.0255684
0.0282211
0.030659
0.0328893
0.0349381
0.0367928
0.00169419
0.0107616
0.0160883
0.0199564
0.0230407
0.0255618
0.0277565
0.029745
0.031569
0.0332743
0.0349022
0.0364434
0.00194372
0.010512
0.0176454
0.0217673
0.0245859
0.0268732
0.0287863
0.0304386
0.0319454
0.0333487
0.0346854
0.0359865
0.00343573
0.0104294
0.0188123
0.0233147
0.025893
0.0281017
0.0298396
0.0312762
0.0325444
0.0336987
0.034778
0.0358108
0.00218754
0.00220965
0.00221215
0.00221216
0.00219445
0.00215482
0.00209228
0.00200131
0.00187451
0.00171241
0.00148092
0.000717539
0.0111346
0.012819
0.0138339
0.0140745
0.0137137
0.0128755
0.0115505
0.00977245
0.00754341
0.00459549
0.0021914
0.0012192
0.0202332
0.0219018
0.0227605
0.0228649
0.0223644
0.0211742
0.0192846
0.0166469
0.013234
0.00903506
0.00402715
0.00160266
0.0269313
0.0286601
0.0297169
0.0301112
0.0298112
0.0287318
0.0267741
0.0237629
0.0195424
0.0139957
0.00693433
0.00195851
0.0318101
0.0336223
0.0348685
0.0355133
0.0354997
0.0347404
0.0330725
0.0302115
0.0256307
0.0190846
0.0101949
0.00230853
0.035118
0.0369817
0.0383726
0.0392637
0.0396235
0.0393607
0.0382464
0.0358541
0.0315353
0.0244122
0.0139931
0.00267315
0.0371891
0.0390125
0.0404366
0.041475
0.0421428
0.0423856
0.0419888
0.0404366
0.0367792
0.0296295
0.0180239
0.00305367
0.0383064
0.0399396
0.0412707
0.0423505
0.0432196
0.0438813
0.0442006
0.0436835
0.0411504
0.0344592
0.021745
0.00347926
0.0384392
0.0398723
0.0411112
0.042189
0.0431667
0.0441095
0.045002
0.0455113
0.0444464
0.0388864
0.0251519
0.0039448
0.0378713
0.039154
0.0403158
0.0413677
0.0423835
0.0434584
0.0446706
0.0459524
0.0464171
0.0428492
0.0290083
0.00444028
0.0372161
0.0383659
0.0394387
0.040418
0.0413484
0.0423222
0.0435874
0.0451555
0.0466185
0.0454453
0.0334484
0.00498574
0.036799
0.0377428
0.0386475
0.0395353
0.0404566
0.0413247
0.0422185
0.0437016
0.0456767
0.0466435
0.03813
0.00561228
0.000322603
0.000683662
0.000713708
0.000709987
0.000690393
0.000654928
0.000689725
0.00101218
0.00163414
0.00187199
0.00196642
0.00203529
0.000524973
0.0013591
0.00189506
0.00188372
0.00129898
0.00081862
0.00160338
0.00200163
0.00295691
0.00432664
0.00610559
0.00803535
0.000685184
0.00244941
0.00314269
0.00280356
0.00247418
0.00237813
0.00340083
0.0051344
0.0075504
0.0105595
0.0134657
0.0160991
0.000862189
0.0036343
0.0036038
0.00314172
0.00318869
0.00417215
0.00672302
0.00968685
0.0130218
0.0164935
0.0196116
0.0223379
0.00100053
0.00431852
0.00431927
0.004092
0.00487312
0.00734344
0.0107029
0.0140802
0.0176676
0.021122
0.0242131
0.0269136
0.00112332
0.00520036
0.00568487
0.00583424
0.00764558
0.0108155
0.0142242
0.0177102
0.021135
0.0244423
0.0274286
0.0300523
0.00122363
0.00595841
0.00703886
0.0081352
0.0107413
0.0140376
0.0173781
0.0206901
0.0239296
0.0269571
0.0296993
0.0321333
0.00133384
0.00721784
0.00909541
0.0114304
0.0143965
0.0175207
0.0205886
0.0235662
0.0264072
0.0290216
0.0313792
0.0334729
0.00146511
0.00879089
0.0123395
0.0156097
0.0185978
0.0213227
0.0238429
0.0261911
0.0283671
0.0304003
0.0322305
0.0338881
0.00165393
0.010644
0.0154681
0.0189475
0.0217217
0.0239429
0.025869
0.0276029
0.0292121
0.0307524
0.0321942
0.0335472
0.00189898
0.010146
0.016734
0.0205262
0.0230783
0.0250984
0.0267629
0.0281964
0.0295025
0.0307422
0.0319332
0.0330854
0.00333983
0.00985075
0.017702
0.0218613
0.0241069
0.0260434
0.0275386
0.028788
0.0299077
0.0309496
0.0319459
0.0329146
0.00207422
0.00209737
0.00210304
0.00210354
0.00209399
0.00205754
0.00200401
0.00191971
0.00180471
0.00165079
0.00143011
0.000690568
0.0100028
0.0116442
0.0126859
0.0129892
0.0126339
0.0118887
0.010684
0.00907959
0.00702556
0.00430952
0.00208529
0.00117752
0.0183623
0.0199976
0.0208829
0.0210619
0.0206261
0.0195643
0.0178483
0.0154386
0.0123103
0.0084391
0.00379346
0.00155106
0.0246016
0.0262921
0.0273664
0.027811
0.0275967
0.0266481
0.0248724
0.0221158
0.0182306
0.0131222
0.0065358
0.00189509
0.0291775
0.0309516
0.0322022
0.0328907
0.0329583
0.0323208
0.0308296
0.0282235
0.0239523
0.0178833
0.00959904
0.00223495
0.0322862
0.0341051
0.035489
0.0364081
0.0368221
0.0366473
0.0356714
0.0334992
0.0295326
0.0229037
0.0132105
0.00258835
0.0342422
0.036008
0.0374194
0.0384774
0.0391899
0.0395063
0.0392247
0.0378577
0.034512
0.0278727
0.0170571
0.00295763
0.0353025
0.0368727
0.0381858
0.0392742
0.0401763
0.0408951
0.041304
0.0409339
0.0386691
0.0324984
0.0206814
0.00336918
0.0353928
0.0367692
0.0379959
0.0390839
0.0400861
0.0410711
0.0420295
0.0426478
0.0417974
0.0367223
0.0239569
0.00382505
0.0348364
0.0360766
0.0372145
0.0382731
0.0393047
0.0404183
0.0416818
0.0430406
0.0436863
0.0404546
0.0277073
0.00431352
0.034241
0.0353593
0.0364274
0.0374318
0.0383777
0.0393636
0.0406645
0.0423599
0.0439344
0.043196
0.0321772
0.00486047
0.0338758
0.0348245
0.0357513
0.0367235
0.0377043
0.0385574
0.0394977
0.0409738
0.0430313
0.0443609
0.0370336
0.00551047
0.000343396
0.00072472
0.000750507
0.000746987
0.000718913
0.00069174
0.000758582
0.00124679
0.00179601
0.00199572
0.00208279
0.00215187
0.000559003
0.00143924
0.0019623
0.00185674
0.00118582
0.00100454
0.00183873
0.00229322
0.00354215
0.00495996
0.00698052
0.0090846
0.000732
0.00262722
0.00318396
0.00273958
0.00244822
0.00266258
0.00410417
0.00605706
0.00883057
0.0120434
0.0151182
0.0179062
0.000920916
0.00377042
0.00364689
0.0032485
0.00355326
0.00518735
0.00800838
0.0111958
0.0148386
0.0184886
0.0217523
0.0246015
0.00106469
0.00459825
0.00469714
0.00462597
0.00594311
0.00886904
0.012298
0.0159666
0.0197851
0.0234145
0.0266532
0.0294709
0.00119077
0.0056671
0.00641085
0.00684565
0.00904645
0.0123751
0.0159871
0.0197048
0.0234226
0.0269167
0.0300558
0.0328006
0.00128647
0.00643191
0.00785905
0.00924227
0.0120873
0.0155704
0.0191249
0.0227204
0.0262053
0.0294532
0.0323848
0.0349725
0.00138975
0.00764468
0.00978044
0.0122889
0.01552
0.0189201
0.0222893
0.0255803
0.0286773
0.0315227
0.0340882
0.0363542
0.00151589
0.00902012
0.0128517
0.0163633
0.0196757
0.0227264
0.0255681
0.0282208
0.0306587
0.032889
0.0349378
0.0367925
0.00169418
0.0107616
0.0160882
0.0199563
0.0230406
0.0255617
0.0277563
0.0297447
0.0315688
0.0332741
0.0349019
0.0364431
0.00194372
0.010512
0.0176454
0.0217673
0.0245858
0.0268731
0.0287861
0.0304384
0.0319452
0.0333485
0.0346852
0.0359862
0.00343573
0.0104294
0.0188123
0.0233147
0.0258929
0.0281016
0.0298395
0.0312761
0.0325443
0.0336985
0.0347779
0.0358106
0.00218754
0.00220965
0.00221215
0.00221216
0.00219445
0.00215482
0.00209227
0.00200131
0.00187451
0.0017124
0.00148092
0.000717538
0.0111345
0.0128189
0.0138338
0.0140744
0.0137136
0.0128754
0.0115504
0.0097724
0.00754338
0.00459547
0.00219139
0.0012192
0.020233
0.0219016
0.0227603
0.0228648
0.0223643
0.0211741
0.0192845
0.0166469
0.0132339
0.00903502
0.00402713
0.00160266
0.0269311
0.0286599
0.0297167
0.0301111
0.029811
0.0287317
0.0267739
0.0237627
0.0195423
0.0139956
0.0069343
0.00195851
0.0318098
0.033622
0.0348683
0.0355131
0.0354995
0.0347402
0.0330723
0.0302113
0.0256306
0.0190845
0.0101948
0.00230853
0.0351177
0.0369815
0.0383724
0.0392635
0.0396233
0.0393605
0.0382462
0.0358539
0.0315352
0.0244121
0.0139931
0.00267315
0.0371888
0.0390122
0.0404364
0.0414747
0.0421426
0.0423853
0.0419885
0.0404364
0.0367791
0.0296294
0.0180238
0.00305367
0.0383061
0.0399393
0.0412704
0.0423503
0.0432193
0.043881
0.0442003
0.0436833
0.0411502
0.0344591
0.021745
0.00347925
0.038439
0.039872
0.0411109
0.0421887
0.0431664
0.0441093
0.0450017
0.0455111
0.0444462
0.0388862
0.0251518
0.00394479
0.037871
0.0391537
0.0403155
0.0413674
0.0423833
0.0434581
0.0446703
0.0459521
0.0464169
0.0428491
0.0290082
0.00444027
0.0372158
0.0383657
0.0394385
0.0404178
0.0413481
0.0423219
0.0435872
0.0451552
0.0466182
0.0454451
0.0334483
0.00498573
0.0367988
0.0377426
0.0386473
0.0395351
0.0404564
0.0413245
0.0422183
0.0437014
0.0456765
0.0466433
0.0381299
0.00561227
0.000322603
0.000683663
0.000713709
0.000709987
0.000690394
0.000654928
0.000689725
0.00101218
0.00163414
0.00187199
0.00196642
0.00203529
0.000524974
0.0013591
0.00189506
0.00188372
0.00129898
0.000818617
0.00160338
0.00200163
0.00295691
0.00432665
0.00610559
0.00803535
0.000685185
0.00244941
0.00314269
0.00280356
0.00247418
0.00237813
0.00340083
0.0051344
0.0075504
0.0105595
0.0134657
0.0160991
0.00086219
0.0036343
0.0036038
0.00314171
0.00318869
0.00417215
0.00672301
0.00968685
0.0130218
0.0164935
0.0196116
0.0223379
0.00100053
0.00431852
0.00431927
0.004092
0.00487311
0.00734344
0.0107029
0.0140802
0.0176676
0.021122
0.0242131
0.0269136
0.00112332
0.00520036
0.00568487
0.00583424
0.00764558
0.0108155
0.0142242
0.0177102
0.021135
0.0244423
0.0274286
0.0300523
0.00122363
0.00595841
0.00703887
0.00813521
0.0107413
0.0140376
0.0173781
0.0206901
0.0239296
0.0269571
0.0296993
0.0321333
0.00133384
0.00721785
0.00909543
0.0114304
0.0143965
0.0175207
0.0205886
0.0235662
0.0264072
0.0290216
0.0313792
0.0334729
0.00146511
0.0087909
0.0123395
0.0156097
0.0185978
0.0213227
0.0238429
0.0261911
0.0283671
0.0304003
0.0322305
0.0338881
0.00165393
0.010644
0.0154681
0.0189475
0.0217217
0.0239429
0.025869
0.0276029
0.0292121
0.0307525
0.0321942
0.0335472
0.00189898
0.010146
0.016734
0.0205262
0.0230783
0.0250984
0.0267629
0.0281964
0.0295025
0.0307422
0.0319332
0.0330854
0.00333983
0.00985074
0.017702
0.0218613
0.0241069
0.0260434
0.0275386
0.028788
0.0299077
0.0309496
0.0319459
0.0329146
0.00207422
0.00209737
0.00210304
0.00210354
0.00209399
0.00205754
0.00200402
0.00191971
0.00180471
0.00165079
0.00143012
0.000690569
0.0100028
0.0116442
0.0126859
0.0129892
0.0126339
0.0118887
0.010684
0.0090796
0.00702557
0.00430953
0.0020853
0.00117752
0.0183623
0.0199976
0.0208829
0.0210619
0.0206261
0.0195643
0.0178483
0.0154386
0.0123103
0.0084391
0.00379347
0.00155106
0.0246016
0.0262921
0.0273665
0.0278111
0.0275967
0.0266481
0.0248724
0.0221158
0.0182306
0.0131222
0.0065358
0.00189509
0.0291775
0.0309517
0.0322023
0.0328908
0.0329583
0.0323208
0.0308296
0.0282236
0.0239523
0.0178833
0.00959905
0.00223495
0.0322862
0.0341051
0.035489
0.0364081
0.0368221
0.0366474
0.0356714
0.0334992
0.0295326
0.0229037
0.0132105
0.00258836
0.0342422
0.036008
0.0374194
0.0384774
0.0391899
0.0395063
0.0392247
0.0378577
0.034512
0.0278727
0.0170571
0.00295763
0.0353025
0.0368727
0.0381859
0.0392742
0.0401764
0.0408952
0.0413041
0.040934
0.0386692
0.0324984
0.0206814
0.00336918
0.0353928
0.0367692
0.037996
0.0390839
0.0400861
0.0410712
0.0420295
0.0426479
0.0417974
0.0367223
0.0239569
0.00382505
0.0348364
0.0360766
0.0372145
0.0382731
0.0393047
0.0404184
0.0416818
0.0430406
0.0436863
0.0404547
0.0277074
0.00431352
0.034241
0.0353593
0.0364274
0.0374318
0.0383778
0.0393637
0.0406646
0.04236
0.0439345
0.0431961
0.0321772
0.00486048
0.0338758
0.0348245
0.0357513
0.0367235
0.0377043
0.0385574
0.0394978
0.0409739
0.0430314
0.044361
0.0370337
0.00551048
0.020983
0.0219879
0.0238946
0.0260298
0.0280431
0.0298719
0.0312867
0.0324585
0.0335036
0.0344169
0.0352417
0.0360089
0.032902
0.0307597
0.030317
0.0307182
0.0315799
0.032434
0.0330536
0.0338574
0.0346968
0.0353166
0.0358384
0.0363167
0.0404568
0.0383218
0.0368334
0.0359315
0.035587
0.0355264
0.0356007
0.0357267
0.0358582
0.0359887
0.0361174
0.0363185
0.0429979
0.0414958
0.0400931
0.0389094
0.0379954
0.037288
0.0367303
0.0364289
0.0361612
0.035907
0.0356921
0.0354502
0.0367285
0.0374139
0.0380733
0.0387227
0.0394268
0.0403158
0.0412316
0.0422457
0.0440001
0.0463826
0.0474324
0.0221461
0.0367413
0.0371456
0.0375472
0.0379723
0.0384476
0.0390182
0.0398732
0.0407402
0.0420377
0.0444227
0.0493362
0.036371
0.0364161
0.0365327
0.036684
0.0369247
0.037269
0.0377361
0.0384086
0.0393532
0.0405052
0.0422824
0.0468247
0.0427015
0.0352701
0.035228
0.0353493
0.0357371
0.0362638
0.0369257
0.0377416
0.038855
0.0401018
0.0414301
0.0443435
0.0440778
0.0197643
0.0203848
0.0221177
0.0240093
0.0257611
0.0273176
0.0285344
0.0296076
0.0305958
0.0314839
0.0323113
0.0331046
0.0313909
0.0288944
0.0280931
0.0281955
0.0287291
0.0293311
0.0299586
0.0307693
0.0316061
0.0322695
0.0328931
0.0334741
0.0391035
0.0364665
0.0344045
0.033218
0.0326071
0.0324117
0.0324584
0.0326407
0.0329088
0.0331285
0.0333664
0.0336419
0.0418684
0.0397812
0.0379815
0.0364434
0.0352827
0.0345291
0.0340174
0.0336381
0.0334631
0.033345
0.0332532
0.0331853
0.0338789
0.0346366
0.0353701
0.0361016
0.0368731
0.0377861
0.0385595
0.03971
0.0415976
0.0442795
0.0466525
0.0226615
0.0340384
0.0345796
0.0350852
0.0355802
0.036087
0.0367743
0.0375252
0.0383239
0.0398438
0.0425063
0.0483253
0.0372291
0.0339763
0.0342673
0.0344844
0.0346959
0.0349574
0.0354008
0.0361016
0.0368596
0.0383306
0.0402751
0.0453149
0.0432689
0.0331259
0.0330408
0.0330135
0.0330714
0.0332783
0.0338495
0.034631
0.0355852
0.0372231
0.0388859
0.042647
0.0438066
0.0209829
0.0219879
0.0238946
0.0260297
0.0280431
0.0298718
0.0312867
0.0324584
0.0335035
0.0344168
0.0352416
0.0360087
0.0329019
0.0307597
0.0303169
0.0307182
0.0315799
0.0324339
0.0330536
0.0338573
0.0346968
0.0353165
0.0358383
0.0363166
0.0404567
0.0383217
0.0368333
0.0359314
0.0355869
0.0355264
0.0356006
0.0357267
0.0358582
0.0359887
0.0361173
0.0363184
0.0429978
0.0414957
0.040093
0.0389092
0.0379953
0.037288
0.0367302
0.0364289
0.0361611
0.0359069
0.035692
0.0354502
0.0367284
0.0374137
0.0380731
0.0387226
0.0394266
0.0403156
0.0412314
0.0422456
0.0439999
0.0463824
0.0474322
0.0221461
0.0367412
0.0371454
0.037547
0.0379722
0.0384475
0.0390181
0.0398731
0.04074
0.0420375
0.0444225
0.049336
0.0363709
0.0364161
0.0365326
0.0366839
0.0369246
0.0372689
0.037736
0.0384085
0.039353
0.0405051
0.0422822
0.0468246
0.0427013
0.03527
0.0352279
0.0353492
0.035737
0.0362638
0.0369256
0.0377415
0.0388548
0.0401017
0.04143
0.0443433
0.0440776
0.0197643
0.0203848
0.0221177
0.0240093
0.0257611
0.0273176
0.0285344
0.0296076
0.0305958
0.0314839
0.0323113
0.0331046
0.0313908
0.0288944
0.0280931
0.0281955
0.028729
0.0293311
0.0299586
0.0307692
0.0316061
0.0322695
0.0328931
0.0334741
0.0391034
0.0364664
0.0344044
0.033218
0.0326071
0.0324117
0.0324584
0.0326407
0.0329088
0.0331285
0.0333664
0.0336419
0.0418683
0.0397811
0.0379815
0.0364433
0.0352827
0.0345291
0.0340174
0.0336381
0.0334631
0.033345
0.0332532
0.0331853
0.0338789
0.0346366
0.0353701
0.0361016
0.0368732
0.0377861
0.0385596
0.03971
0.0415977
0.0442796
0.0466526
0.0226615
0.0340384
0.0345797
0.0350852
0.0355803
0.036087
0.0367744
0.0375253
0.038324
0.0398439
0.0425064
0.0483255
0.0372292
0.0339763
0.0342673
0.0344844
0.034696
0.0349575
0.0354009
0.0361017
0.0368597
0.0383307
0.0402752
0.0453151
0.043269
0.033126
0.0330408
0.0330136
0.0330715
0.0332784
0.0338496
0.0346312
0.0355854
0.0372233
0.0388861
0.0426472
0.0438068
0.0413244
0.040046
0.0387885
0.0377021
0.0368253
0.0361068
0.0354979
0.0350431
0.0345856
0.0341055
0.033652
0.0333535
0.0391158
0.0380125
0.0368735
0.0358508
0.034975
0.034219
0.0335435
0.0329284
0.0322521
0.0314626
0.0305943
0.0299631
0.0367777
0.0358405
0.0348105
0.0338404
0.0329656
0.0321678
0.0314062
0.0306241
0.0296852
0.0284261
0.02667
0.0247623
0.0344969
0.0337111
0.0327874
0.0318674
0.0309938
0.0301544
0.0293032
0.0283542
0.0271164
0.0251864
0.0216647
0.0161413
0.0335363
0.0342396
0.0351091
0.03614
0.0372535
0.0382951
0.039379
0.0404249
0.0413947
0.0423215
0.0428237
0.0422782
0.0305097
0.0323737
0.0341743
0.0358479
0.0374165
0.0387398
0.0398731
0.0407833
0.0414454
0.0417045
0.0416459
0.0407496
0.0253831
0.0296193
0.0327723
0.035104
0.0369628
0.0384245
0.0395516
0.0403303
0.0406706
0.0406667
0.0403161
0.039081
0.0161701
0.025732
0.0309263
0.03396
0.0360458
0.0375743
0.0386773
0.0392801
0.0394666
0.0393501
0.038759
0.0373796
0.0402666
0.0383246
0.0366859
0.0353229
0.0342844
0.0335271
0.0329166
0.0323909
0.0319848
0.0316136
0.0312973
0.0310851
0.038733
0.0368458
0.0352156
0.033836
0.032708
0.0317776
0.0309512
0.0301781
0.0294494
0.0287131
0.0280115
0.0275191
0.037172
0.035293
0.0336059
0.0321272
0.0308445
0.0297085
0.0286464
0.027601
0.0265184
0.0252879
0.0238353
0.0225094
0.0355542
0.0336827
0.0319348
0.0303487
0.0289157
0.0275947
0.0263216
0.0250204
0.0235686
0.0216759
0.0186775
0.0143399
0.0310164
0.0310381
0.0311422
0.0314354
0.0320203
0.0329838
0.0342314
0.0357088
0.0375267
0.0394335
0.0414448
0.0420057
0.0275589
0.0280277
0.028459
0.0290363
0.0299183
0.0311533
0.0326594
0.0343539
0.0361939
0.0379651
0.039298
0.0396684
0.0226046
0.024464
0.0256308
0.0266072
0.0277538
0.0291605
0.0307749
0.0325144
0.0342826
0.0358625
0.0368925
0.0371962
0.0143336
0.0201959
0.0228255
0.0243503
0.0257402
0.0272391
0.0288632
0.0305577
0.0322201
0.0336207
0.0345098
0.0348008
0.0413242
0.0400458
0.0387884
0.037702
0.0368252
0.0361067
0.0354979
0.0350431
0.0345856
0.0341055
0.033652
0.0333535
0.0391157
0.0380123
0.0368734
0.0358507
0.0349749
0.0342189
0.0335435
0.0329283
0.032252
0.0314625
0.0305943
0.029963
0.0367775
0.0358404
0.0348103
0.0338403
0.0329655
0.0321677
0.0314061
0.0306241
0.0296851
0.0284261
0.0266699
0.0247623
0.0344967
0.0337109
0.0327872
0.0318672
0.0309937
0.0301543
0.029303
0.0283541
0.0271163
0.0251864
0.0216647
0.0161413
0.0335362
0.0342395
0.035109
0.03614
0.0372534
0.038295
0.0393789
0.0404248
0.0413946
0.0423214
0.0428236
0.0422781
0.0305096
0.0323736
0.0341742
0.0358478
0.0374164
0.0387397
0.039873
0.0407832
0.0414453
0.0417044
0.0416458
0.0407495
0.0253831
0.0296192
0.0327722
0.0351039
0.0369627
0.0384244
0.0395514
0.0403302
0.0406705
0.0406666
0.040316
0.039081
0.0161701
0.0257319
0.0309262
0.0339599
0.0360457
0.0375741
0.0386771
0.03928
0.0394665
0.03935
0.0387589
0.0373795
0.0402665
0.0383246
0.0366859
0.0353229
0.0342844
0.0335272
0.0329166
0.0323909
0.0319848
0.0316136
0.0312973
0.0310851
0.038733
0.0368457
0.0352156
0.033836
0.0327081
0.0317777
0.0309512
0.0301782
0.0294495
0.0287131
0.0280115
0.0275192
0.037172
0.035293
0.033606
0.0321272
0.0308446
0.0297086
0.0286465
0.0276012
0.0265185
0.025288
0.0238354
0.0225094
0.0355541
0.0336827
0.0319349
0.0303488
0.0289158
0.0275948
0.0263218
0.0250206
0.0235688
0.021676
0.0186776
0.01434
0.0310165
0.0310382
0.0311424
0.0314356
0.0320205
0.032984
0.0342316
0.035709
0.0375269
0.0394337
0.041445
0.0420059
0.027559
0.0280279
0.0284593
0.0290366
0.0299186
0.0311537
0.0326597
0.0343542
0.0361942
0.0379653
0.0392982
0.0396686
0.0226047
0.0244643
0.0256312
0.0266077
0.0277543
0.029161
0.0307753
0.0325147
0.0342829
0.0358627
0.0368928
0.0371965
0.0143336
0.0201962
0.0228261
0.024351
0.0257408
0.0272397
0.0288637
0.0305581
0.0322204
0.033621
0.03451
0.0348011
0.0323454
0.0316918
0.0308653
0.0299943
0.0291254
0.0282496
0.0273158
0.0262141
0.024697
0.0220303
0.0159564
0.00353326
0.030338
0.0297952
0.0290555
0.0282324
0.0273727
0.0264692
0.0254667
0.0242411
0.0225137
0.0195757
0.013709
0.00245413
0.0284624
0.0280103
0.0273472
0.0265708
0.0257254
0.0248044
0.0237515
0.0224395
0.0205988
0.0176333
0.0123051
0.00200503
0.0266902
0.0263123
0.0257165
0.0249859
0.0241605
0.0232337
0.0221505
0.0207901
0.0189125
0.0160451
0.0112603
0.00178663
0.0249766
0.0246603
0.0241247
0.0234401
0.0226414
0.0217217
0.0206295
0.0192555
0.0173968
0.0146851
0.010369
0.00163071
0.0232512
0.0229885
0.0225091
0.0218729
0.0211099
0.0202123
0.0191332
0.0177777
0.0159793
0.0134499
0.00953743
0.00149645
0.0214006
0.0211879
0.0207645
0.0201832
0.0194685
0.0186119
0.0175712
0.0162665
0.0145643
0.0122374
0.00870184
0.00137249
0.0192381
0.0190762
0.0187138
0.0181996
0.0175526
0.0167625
0.0157925
0.0145777
0.0130138
0.0109243
0.00779413
0.00125153
0.0164599
0.0163525
0.0160623
0.0156359
0.0150862
0.0144003
0.0135473
0.0124784
0.011116
0.00933535
0.00671259
0.00112512
0.0125894
0.0125394
0.012338
0.0120311
0.0116231
0.0110985
0.0104336
0.00959967
0.00853459
0.00718816
0.00527709
0.000980119
0.00699334
0.00699101
0.00689349
0.00674473
0.0065381
0.00625575
0.0058865
0.0054263
0.00480706
0.00406779
0.0031179
0.000796833
0.000748215
0.000743677
0.000731136
0.000713479
0.000690444
0.000661963
0.000627197
0.000582992
0.000526837
0.000455721
0.000363096
0.000172454
0.00366537
0.0209682
0.0288522
0.03254
0.0348052
0.0363636
0.037402
0.0378977
0.038046
0.037822
0.0370361
0.0356522
0.0028762
0.0188178
0.0269674
0.03097
0.0333522
0.034928
0.0358823
0.0363327
0.0364368
0.0361263
0.0352576
0.0339116
0.00254579
0.0173546
0.0252226
0.0293214
0.0317578
0.0333224
0.0342279
0.0346466
0.0347018
0.0343266
0.033447
0.0321658
0.00235376
0.0161415
0.0235702
0.0276245
0.0300614
0.0315966
0.0324651
0.0328664
0.032873
0.0324535
0.031605
0.0304063
0.0022053
0.0150148
0.0219544
0.0258758
0.0282689
0.0297589
0.030599
0.0309719
0.0309371
0.0305041
0.0297063
0.0285974
0.00207185
0.0138887
0.0203141
0.0240386
0.0263442
0.0277733
0.0285785
0.0289155
0.0288464
0.0284181
0.0276805
0.0266614
0.00193998
0.0126996
0.0185711
0.0220333
0.0242001
0.0255434
0.0262933
0.0265876
0.0264902
0.0260741
0.025392
0.0244677
0.00180123
0.0113678
0.0166061
0.0197118
0.0216685
0.0228796
0.0235448
0.0237846
0.0236616
0.0232595
0.0226258
0.0218111
0.00165259
0.00976303
0.0142012
0.0168056
0.0184452
0.0194538
0.0199922
0.0201614
0.0200193
0.0196357
0.0190586
0.0183902
0.00147783
0.00769288
0.0109702
0.0128443
0.0140189
0.014734
0.0150973
0.01519
0.015046
0.0147046
0.0142446
0.0137582
0.00125585
0.00467357
0.0062432
0.00713488
0.00770548
0.00805172
0.00821134
0.00825264
0.00814722
0.00795361
0.00769739
0.00741956
0.000296762
0.000515747
0.00065812
0.000746315
0.000806295
0.000846948
0.000870857
0.000880531
0.000876418
0.000864049
0.000845682
0.000822506
0.0339052
0.0320634
0.0302847
0.0286226
0.0270776
0.0256164
0.0241777
0.0226636
0.0208809
0.0183014
0.0130935
0.00295869
0.032253
0.030472
0.0287063
0.0270166
0.0254118
0.0238654
0.022317
0.0206549
0.0186551
0.015776
0.0106075
0.00180531
0.0306089
0.0289183
0.0272089
0.0255412
0.0239297
0.0223534
0.0207541
0.0190175
0.016924
0.0140094
0.00925418
0.00136083
0.0289602
0.0273817
0.0257619
0.0241571
0.0225844
0.021027
0.0194312
0.017689
0.015606
0.0128165
0.00858804
0.00119312
0.0272635
0.0258096
0.0243003
0.022787
0.0212871
0.0197872
0.0182395
0.0165473
0.014548
0.0119593
0.00822045
0.0011199
0.0254428
0.0241151
0.0227265
0.0213227
0.01992
0.0185072
0.0170423
0.0154413
0.0135704
0.0112045
0.0078671
0.001069
0.0233731
0.0221676
0.020906
0.0196264
0.0183418
0.017042
0.0156899
0.0142128
0.0125004
0.0103615
0.00741313
0.00103078
0.0208594
0.0197785
0.0186567
0.017522
0.0163818
0.0152253
0.0140194
0.012701
0.01118
0.00928244
0.00677266
0.000985327
0.0176082
0.0166806
0.0157302
0.0147783
0.0138233
0.0128535
0.0118399
0.0107279
0.00945078
0.0078356
0.00584302
0.000927473
0.0131679
0.012478
0.0117558
0.011049
0.0103407
0.00961945
0.00886197
0.00802223
0.00706894
0.00580225
0.00441573
0.000844973
0.00710484
0.00677096
0.00641102
0.00604033
0.0056641
0.0052791
0.00487289
0.0044085
0.00391074
0.00316075
0.00247017
0.000725359
0.000794411
0.000762646
0.000727837
0.000691502
0.000654378
0.00061611
0.000576455
0.000533363
0.000486845
0.000424522
0.00036255
0.000224711
0.00319099
0.0153127
0.0201526
0.0223089
0.0239149
0.0254494
0.0270275
0.0286353
0.0301795
0.031444
0.0322561
0.0325558
0.00230893
0.012926
0.0179957
0.020524
0.022262
0.0237906
0.0252965
0.0268049
0.0282364
0.0293956
0.0301591
0.0304733
0.00188263
0.0113482
0.0162668
0.0189431
0.0207399
0.0222343
0.0236606
0.0250733
0.026406
0.0274816
0.0282101
0.0285379
0.00162816
0.0101595
0.0148231
0.0175036
0.0192944
0.0207351
0.0220846
0.0234149
0.0246675
0.0256775
0.0263788
0.0267182
0.00144633
0.00917544
0.0135405
0.0161329
0.0178631
0.0192334
0.0205125
0.0217781
0.022972
0.0239336
0.0246152
0.0249658
0.00130623
0.00827777
0.0123275
0.0147577
0.0163757
0.0176555
0.0188667
0.020084
0.0212415
0.0221724
0.0228421
0.0232064
0.00118638
0.00742103
0.0111054
0.0133001
0.0147512
0.0159114
0.0170462
0.0182227
0.0193613
0.0202761
0.0209394
0.0213231
0.00107495
0.00656193
0.0097888
0.0116662
0.0128902
0.0138897
0.0149212
0.0160446
0.0171664
0.0180668
0.0187201
0.0191276
0.000963085
0.0056243
0.00825601
0.00972455
0.0106594
0.0114468
0.0123244
0.0133487
0.0144209
0.0152805
0.0158956
0.0163193
0.000839114
0.00445222
0.00629364
0.00723884
0.00782044
0.00833454
0.00897093
0.00979585
0.0107405
0.0115205
0.0120427
0.0124339
0.00068451
0.00270537
0.00357122
0.00394702
0.00416368
0.00437462
0.00470201
0.00521273
0.00580491
0.00630259
0.00665045
0.00688289
0.000148061
0.00031381
0.000387341
0.000429515
0.000462362
0.000500502
0.000549504
0.000606544
0.000656947
0.000695961
0.000724941
0.000742519
0.0323451
0.0316916
0.0308651
0.0299941
0.0291252
0.0282495
0.0273157
0.026214
0.0246969
0.0220302
0.0159563
0.00353326
0.0303378
0.0297949
0.0290553
0.0282322
0.0273725
0.026469
0.0254665
0.0242409
0.0225136
0.0195755
0.013709
0.00245412
0.0284621
0.02801
0.027347
0.0265706
0.0257252
0.0248042
0.0237513
0.0224393
0.0205986
0.0176331
0.0123049
0.00200501
0.0266898
0.0263119
0.0257162
0.0249856
0.0241602
0.0232334
0.0221503
0.0207899
0.0189122
0.0160449
0.0112601
0.0017866
0.0249762
0.0246599
0.0241244
0.0234397
0.0226411
0.0217214
0.0206292
0.0192552
0.0173965
0.0146848
0.0103688
0.00163067
0.0232508
0.0229881
0.0225087
0.0218725
0.0211095
0.020212
0.0191329
0.0177773
0.0159789
0.0134495
0.0095372
0.0014964
0.0214002
0.0211875
0.0207641
0.0201828
0.0194682
0.0186115
0.0175709
0.0162661
0.014564
0.0122371
0.00870163
0.00137242
0.0192377
0.0190759
0.0187135
0.0181993
0.0175523
0.0167622
0.0157922
0.0145774
0.0130135
0.010924
0.00779399
0.00125145
0.0164596
0.0163523
0.0160621
0.0156357
0.0150859
0.0144001
0.0135471
0.0124782
0.0111158
0.00933522
0.00671257
0.00112502
0.0125893
0.0125393
0.0123379
0.012031
0.011623
0.0110984
0.0104335
0.00959958
0.00853453
0.00718816
0.0052772
0.000979985
0.00699325
0.00699093
0.00689342
0.00674467
0.00653804
0.0062557
0.00588645
0.00542627
0.00480704
0.0040678
0.003118
0.000796666
0.000748195
0.000743658
0.000731118
0.000713461
0.000690427
0.000661946
0.000627179
0.000582972
0.000526815
0.000455694
0.000363066
0.000172385
0.00366537
0.0209682
0.0288521
0.0325398
0.0348051
0.0363634
0.0374018
0.0378976
0.0380458
0.0378219
0.037036
0.0356522
0.0028762
0.0188178
0.0269672
0.0309698
0.0333521
0.0349279
0.0358822
0.0363326
0.0364366
0.0361262
0.0352575
0.0339115
0.00254578
0.0173545
0.0252225
0.0293212
0.0317577
0.0333222
0.0342278
0.0346465
0.0347016
0.0343265
0.0334469
0.0321658
0.00235375
0.0161414
0.0235701
0.0276243
0.0300613
0.0315964
0.032465
0.0328663
0.0328729
0.0324534
0.031605
0.0304063
0.00220529
0.0150147
0.0219543
0.0258757
0.0282688
0.0297588
0.0305988
0.0309718
0.030937
0.030504
0.0297062
0.0285974
0.00207184
0.0138886
0.0203139
0.0240384
0.026344
0.0277731
0.0285783
0.0289153
0.0288463
0.028418
0.0276805
0.0266614
0.00193997
0.0126996
0.018571
0.0220332
0.0242
0.0255433
0.0262932
0.0265874
0.0264901
0.026074
0.0253919
0.0244677
0.00180121
0.0113678
0.016606
0.0197117
0.0216684
0.0228795
0.0235447
0.0237845
0.0236616
0.0232595
0.0226257
0.0218111
0.00165257
0.00976301
0.0142011
0.0168055
0.0184451
0.0194537
0.0199921
0.0201613
0.0200193
0.0196357
0.0190586
0.0183902
0.00147781
0.00769287
0.0109702
0.0128443
0.0140189
0.014734
0.0150973
0.01519
0.015046
0.0147046
0.0142446
0.0137582
0.00125583
0.00467357
0.00624319
0.00713487
0.00770547
0.00805171
0.00821132
0.00825263
0.00814721
0.0079536
0.00769738
0.00741956
0.000296757
0.000515741
0.000658113
0.000746308
0.000806289
0.000846942
0.000870852
0.000880526
0.000876413
0.000864045
0.000845678
0.000822503
0.0339052
0.0320634
0.0302847
0.0286227
0.0270777
0.0256166
0.0241779
0.0226639
0.0208812
0.0183017
0.0130937
0.00295871
0.032253
0.030472
0.0287064
0.0270168
0.025412
0.0238657
0.0223173
0.0206553
0.0186554
0.0157763
0.0106078
0.00180538
0.0306089
0.0289184
0.027209
0.0255413
0.0239299
0.0223537
0.0207545
0.0190179
0.0169245
0.0140099
0.00925458
0.00136095
0.0289602
0.0273817
0.025762
0.0241573
0.0225846
0.0210273
0.0194316
0.0176895
0.0156065
0.0128172
0.00858849
0.00119328
0.0272635
0.0258097
0.0243004
0.0227871
0.0212873
0.0197876
0.0182399
0.0165478
0.0145486
0.01196
0.00822082
0.00112009
0.0254428
0.0241151
0.0227266
0.0213229
0.0199202
0.0185075
0.0170427
0.0154418
0.013571
0.0112051
0.00786731
0.0010692
0.0233732
0.0221676
0.0209061
0.0196265
0.018342
0.0170423
0.0156903
0.0142133
0.0125009
0.010362