/*--------------------------------*- C++ -*----------------------------------*\
| =========                 |                                                 |
| \\      /  F ield         | OpenFOAM: The Open Source CFD Toolbox           |
|  \\    /   O peration     | Version:  2212                                  |
|   \\  /    A nd           | Website:  www.openfoam.com                      |
|    \\/     M anipulation  |                                                 |
\*---------------------------------------------------------------------------*/
FoamFile
{
    version     2.0;
    format      ascii;
    arch        "LSB;label=32;scalar=64";
    class       volScalarField;
    location    "0.04";
    object      alphat;
}
// * * * * * * * * * * * * * * * * * * * * * * * * * * * * * * * * * * * * * //

dimensions      [1 -1 -1 0 0 0 0];

internalField   nonuniform List<scalar> 
3072
(
0.000277704
0.000598301
0.000643715
0.000643409
0.000638858
0.00061282
0.000597556
0.000673163
0.00116811
0.00158782
0.00172962
0.00179405
0.000449331
0.00130094
0.00184954
0.00207389
0.00177823
0.00103449
0.000924916
0.00164033
0.00200705
0.0032205
0.00440354
0.00614498
0.000577351
0.00214506
0.00289744
0.00302849
0.00262569
0.00242409
0.00240366
0.00341246
0.00520022
0.00763689
0.0102147
0.012708
0.000731042
0.00337842
0.00368626
0.00320697
0.00304114
0.00306414
0.00407215
0.00660489
0.0093601
0.0124767
0.0154289
0.0180414
0.000864679
0.00401373
0.00405862
0.00367113
0.00367085
0.00449884
0.00682956
0.0101076
0.0132772
0.0164868
0.0194448
0.022054
0.000992273
0.00455106
0.00461315
0.0043598
0.00486485
0.00685375
0.0100181
0.0132311
0.0163692
0.0194559
0.0222977
0.0248381
0.00110437
0.00515945
0.00560624
0.00569656
0.00700704
0.00983183
0.0128542
0.0158281
0.0187528
0.0215415
0.0241781
0.0265992
0.00124123
0.00652264
0.00775408
0.0088006
0.0109703
0.0134389
0.0159426
0.0184683
0.0210078
0.0234282
0.0257093
0.0278153
0.0014047
0.00885567
0.0116364
0.0139542
0.0160251
0.0179042
0.0197218
0.0215421
0.0233985
0.0252123
0.026967
0.0286444
0.00163095
0.0106601
0.0147916
0.017633
0.0196915
0.0212675
0.0226212
0.0238873
0.0251178
0.0263442
0.027594
0.0288843
0.00184499
0.00994904
0.0159615
0.0194294
0.0217136
0.0231214
0.0243996
0.0253101
0.0261388
0.0269673
0.0278425
0.0287981
0.00307833
0.00937511
0.0168143
0.0208488
0.0228293
0.02458
0.025686
0.0264722
0.0270998
0.0276908
0.0283164
0.0290278
0.00184396
0.00186861
0.00188317
0.0018859
0.00188739
0.00185857
0.0018146
0.00173923
0.00163548
0.00149368
0.00128388
0.000610689
0.00786703
0.0094497
0.0105571
0.011032
0.0108223
0.0102529
0.00927067
0.00791972
0.00612785
0.00374554
0.00183074
0.00106169
0.0148556
0.0164967
0.0175249
0.0179253
0.017709
0.016927
0.0155246
0.0134847
0.0107664
0.0073758
0.00328599
0.0014156
0.0202542
0.0219894
0.0231959
0.0238377
0.0238674
0.0232225
0.02181
0.0195051
0.0161061
0.0116295
0.00579551
0.00173028
0.0243
0.0261438
0.0275501
0.0284772
0.0288542
0.0285547
0.0274015
0.0251456
0.0213549
0.0158937
0.00854895
0.00204462
0.0270729
0.0289825
0.0305423
0.0317139
0.0324289
0.0325776
0.0319482
0.0301585
0.0266278
0.020547
0.0118807
0.00236802
0.0287657
0.0306718
0.0323106
0.033663
0.0347009
0.035355
0.0353977
0.0343429
0.0313707
0.0252831
0.0154333
0.00270872
0.0297424
0.031503
0.0330923
0.0345122
0.0357924
0.0369138
0.0377057
0.037659
0.0356622
0.0298667
0.0189094
0.00308606
0.0302067
0.031659
0.033091
0.0345054
0.0359136
0.0373673
0.038792
0.0397959
0.0391497
0.0342035
0.0221215
0.00350635
0.0301513
0.0313431
0.0325576
0.0339432
0.0354735
0.037137
0.0389535
0.0407967
0.041596
0.0382872
0.0258689
0.00395518
0.0299197
0.0311971
0.0322635
0.0333773
0.0349085
0.0367009
0.0386595
0.0408834
0.0427738
0.0417304
0.030366
0.00445249
0.0299371
0.0312839
0.0325119
0.0334905
0.0347458
0.0364655
0.0383146
0.0405084
0.0427926
0.0437109
0.0351047
0.00502873
0.000277705
0.000598304
0.000643717
0.000643411
0.00063886
0.000612821
0.000597557
0.000673167
0.00116812
0.00158782
0.00172962
0.00179406
0.000449334
0.00130094
0.00184954
0.00207388
0.00177821
0.00103448
0.00092492
0.00164034
0.00200707
0.00322052
0.00440357
0.00614502
0.000577355
0.00214507
0.00289743
0.00302846
0.00262566
0.00242408
0.00240367
0.0034125
0.00520027
0.00763696
0.0102148
0.0127081
0.000731047
0.00337843
0.00368625
0.00320696
0.00304114
0.00306416
0.00407222
0.00660498
0.0093602
0.0124768
0.015429
0.0180415
0.000864685
0.00401375
0.00405862
0.00367114
0.00367087
0.00449888
0.00682967
0.0101077
0.0132773
0.016487
0.0194449
0.0220541
0.000992278
0.00455108
0.00461317
0.00435983
0.0048649
0.0068539
0.0100183
0.0132313
0.0163693
0.019456
0.0222979
0.0248383
0.00110437
0.00515948
0.00560629
0.00569665
0.0070072
0.00983201
0.0128543
0.0158283
0.018753
0.0215416
0.0241783
0.0265993
0.00124123
0.00652266
0.00775414
0.00880072
0.0109704
0.0134391
0.0159427
0.0184685
0.0210079
0.0234283
0.0257095
0.0278155
0.0014047
0.00885567
0.0116365
0.0139542
0.0160252
0.0179043
0.0197219
0.0215423
0.0233987
0.0252125
0.0269672
0.0286445
0.00163094
0.0106601
0.0147916
0.017633
0.0196916
0.0212676
0.0226213
0.0238874
0.0251179
0.0263444
0.0275942
0.0288845
0.00184499
0.00994903
0.0159614
0.0194294
0.0217137
0.0231214
0.0243997
0.0253101
0.0261388
0.0269674
0.0278426
0.0287983
0.00307833
0.0093751
0.0168143
0.0208488
0.0228293
0.02458
0.025686
0.0264722
0.0270998
0.0276908
0.0283165
0.0290279
0.00184397
0.00186861
0.00188317
0.00188591
0.00188739
0.00185857
0.0018146
0.00173923
0.00163548
0.00149369
0.00128389
0.000610689
0.00786707
0.00944975
0.0105571
0.011032
0.0108224
0.0102529
0.0092707
0.00791974
0.00612786
0.00374555
0.00183075
0.00106169
0.0148557
0.0164968
0.017525
0.0179254
0.0177091
0.016927
0.0155247
0.0134847
0.0107664
0.00737582
0.003286
0.0014156
0.0202543
0.0219895
0.023196
0.0238378
0.0238675
0.0232226
0.0218101
0.0195052
0.0161062
0.0116295
0.00579552
0.00173028
0.0243002
0.0261439
0.0275502
0.0284773
0.0288543
0.0285548
0.0274016
0.0251457
0.021355
0.0158937
0.00854897
0.00204462
0.0270731
0.0289827
0.0305424
0.031714
0.032429
0.0325778
0.0319483
0.0301585
0.0266278
0.020547
0.0118807
0.00236802
0.0287658
0.0306719
0.0323108
0.0336632
0.0347011
0.0353552
0.0353978
0.034343
0.0313708
0.0252832
0.0154334
0.00270872
0.0297426
0.0315032
0.0330924
0.0345124
0.0357925
0.036914
0.0377059
0.0376591
0.0356623
0.0298667
0.0189094
0.00308607
0.0302069
0.0316592
0.0330912
0.0345056
0.0359138
0.0373675
0.0387921
0.0397961
0.0391498
0.0342036
0.0221215
0.00350635
0.0301515
0.0313433
0.0325578
0.0339434
0.0354737
0.0371371
0.0389536
0.0407968
0.0415961
0.0382873
0.025869
0.00395519
0.0299198
0.0311972
0.0322636
0.0333775
0.0349086
0.036701
0.0386597
0.0408835
0.042774
0.0417305
0.030366
0.00445249
0.0299372
0.031284
0.032512
0.0334907
0.0347459
0.0364657
0.0383147
0.0405086
0.0427927
0.043711
0.0351047
0.00502873
0.000277706
0.000598305
0.000643719
0.000643414
0.000638863
0.000612824
0.00059756
0.000673167
0.00116812
0.00158782
0.00172962
0.00179406
0.000449335
0.00130095
0.00184956
0.00207391
0.00177824
0.0010345
0.000924922
0.00164033
0.00200706
0.00322051
0.00440356
0.00614501
0.000577356
0.00214508
0.00289746
0.0030285
0.00262569
0.00242409
0.00240367
0.00341249
0.00520025
0.00763694
0.0102147
0.0127081
0.000731048
0.00337844
0.00368628
0.00320699
0.00304116
0.00306416
0.00407219
0.00660495
0.00936017
0.0124768
0.0154289
0.0180414
0.000864686
0.00401377
0.00405865
0.00367116
0.00367088
0.00449887
0.00682964
0.0101076
0.0132773
0.0164869
0.0194449
0.0220541
0.000992279
0.0045511
0.00461319
0.00435984
0.0048649
0.00685386
0.0100182
0.0132313
0.0163693
0.019456
0.0222978
0.0248383
0.00110437
0.0051595
0.00560631
0.00569665
0.00700717
0.00983198
0.0128543
0.0158283
0.018753
0.0215416
0.0241782
0.0265993
0.00124123
0.00652269
0.00775416
0.00880072
0.0109704
0.0134391
0.0159427
0.0184685
0.0210079
0.0234283
0.0257095
0.0278155
0.00140471
0.0088557
0.0116365
0.0139543
0.0160253
0.0179043
0.0197219
0.0215423
0.0233987
0.0252124
0.0269672
0.0286445
0.00163095
0.0106601
0.0147916
0.0176331
0.0196916
0.0212676
0.0226213
0.0238874
0.0251179
0.0263444
0.0275942
0.0288845
0.00184499
0.00994905
0.0159615
0.0194294
0.0217137
0.0231214
0.0243997
0.0253102
0.0261389
0.0269674
0.0278426
0.0287982
0.00307833
0.00937511
0.0168143
0.0208488
0.0228293
0.02458
0.025686
0.0264722
0.0270998
0.0276908
0.0283165
0.0290279
0.00184397
0.00186861
0.00188317
0.00188591
0.00188739
0.00185857
0.0018146
0.00173923
0.00163548
0.00149369
0.00128388
0.000610689
0.00786706
0.00944974
0.0105571
0.011032
0.0108224
0.0102529
0.00927069
0.00791974
0.00612786
0.00374555
0.00183075
0.00106169
0.0148556
0.0164967
0.017525
0.0179253
0.0177091
0.016927
0.0155246
0.0134847
0.0107664
0.00737581
0.00328599
0.0014156
0.0202543
0.0219895
0.023196
0.0238378
0.0238675
0.0232226
0.0218101
0.0195051
0.0161062
0.0116295
0.00579552
0.00173028
0.0243001
0.0261439
0.0275502
0.0284773
0.0288543
0.0285548
0.0274016
0.0251457
0.0213549
0.0158937
0.00854896
0.00204462
0.027073
0.0289826
0.0305424
0.031714
0.032429
0.0325777
0.0319483
0.0301585
0.0266278
0.020547
0.0118807
0.00236802
0.0287658
0.0306719
0.0323108
0.0336631
0.034701
0.0353551
0.0353978
0.0343429
0.0313708
0.0252832
0.0154333
0.00270872
0.0297426
0.0315032
0.0330924
0.0345123
0.0357925
0.0369139
0.0377058
0.0376591
0.0356623
0.0298667
0.0189094
0.00308606
0.0302069
0.0316592
0.0330911
0.0345055
0.0359137
0.0373674
0.0387921
0.039796
0.0391498
0.0342036
0.0221215
0.00350635
0.0301515
0.0313432
0.0325578
0.0339433
0.0354737
0.0371371
0.0389536
0.0407968
0.0415961
0.0382872
0.025869
0.00395519
0.0299198
0.0311972
0.0322636
0.0333775
0.0349086
0.036701
0.0386596
0.0408835
0.0427739
0.0417305
0.030366
0.00445249
0.0299372
0.031284
0.0325119
0.0334906
0.0347459
0.0364656
0.0383147
0.0405085
0.0427927
0.043711
0.0351047
0.00502873
0.000277704
0.000598302
0.000643715
0.000643409
0.000638859
0.00061282
0.000597556
0.000673163
0.00116811
0.00158781
0.00172962
0.00179405
0.000449333
0.00130094
0.00184954
0.00207388
0.00177822
0.00103449
0.000924915
0.00164033
0.00200706
0.0032205
0.00440355
0.00614499
0.000577353
0.00214506
0.00289743
0.00302847
0.00262567
0.00242408
0.00240366
0.00341247
0.00520023
0.00763691
0.0102147
0.0127081
0.000731044
0.00337842
0.00368625
0.00320696
0.00304114
0.00306415
0.00407218
0.00660492
0.00936013
0.0124767
0.0154289
0.0180414
0.000864682
0.00401374
0.00405862
0.00367114
0.00367086
0.00449886
0.00682961
0.0101076
0.0132773
0.0164869
0.0194448
0.0220541
0.000992275
0.00455107
0.00461316
0.00435982
0.00486488
0.00685383
0.0100182
0.0132312
0.0163692
0.019456
0.0222978
0.0248382
0.00110437
0.00515947
0.00560627
0.00569662
0.00700713
0.00983194
0.0128543
0.0158282
0.0187529
0.0215416
0.0241782
0.0265993
0.00124123
0.00652265
0.00775412
0.00880068
0.0109704
0.0134391
0.0159427
0.0184684
0.0210079
0.0234283
0.0257094
0.0278154
0.0014047
0.00885567
0.0116365
0.0139542
0.0160252
0.0179043
0.0197219
0.0215422
0.0233986
0.0252124
0.0269672
0.0286445
0.00163094
0.0106601
0.0147916
0.017633
0.0196916
0.0212675
0.0226213
0.0238874
0.0251179
0.0263443
0.0275941
0.0288844
0.00184499
0.00994903
0.0159614
0.0194294
0.0217136
0.0231214
0.0243996
0.0253101
0.0261388
0.0269674
0.0278425
0.0287982
0.00307833
0.00937509
0.0168143
0.0208488
0.0228293
0.02458
0.025686
0.0264722
0.0270998
0.0276908
0.0283165
0.0290279
0.00184396
0.00186861
0.00188317
0.0018859
0.00188739
0.00185857
0.0018146
0.00173923
0.00163548
0.00149368
0.00128388
0.000610688
0.00786704
0.00944972
0.0105571
0.011032
0.0108224
0.0102529
0.00927068
0.00791973
0.00612785
0.00374554
0.00183074
0.00106169
0.0148556
0.0164967
0.017525
0.0179253
0.017709
0.016927
0.0155246
0.0134847
0.0107664
0.0073758
0.00328599
0.0014156
0.0202543
0.0219894
0.0231959
0.0238378
0.0238674
0.0232226
0.02181
0.0195051
0.0161062
0.0116295
0.00579551
0.00173028
0.0243001
0.0261439
0.0275502
0.0284772
0.0288542
0.0285547
0.0274015
0.0251456
0.0213549
0.0158937
0.00854896
0.00204462
0.027073
0.0289826
0.0305424
0.0317139
0.032429
0.0325777
0.0319483
0.0301585
0.0266278
0.020547
0.0118807
0.00236802
0.0287658
0.0306719
0.0323107
0.0336631
0.034701
0.0353551
0.0353977
0.0343429
0.0313707
0.0252832
0.0154333
0.00270872
0.0297425
0.0315031
0.0330924
0.0345123
0.0357925
0.0369139
0.0377058
0.037659
0.0356622
0.0298667
0.0189094
0.00308606
0.0302068
0.0316591
0.0330911
0.0345055
0.0359137
0.0373674
0.038792
0.039796
0.0391498
0.0342035
0.0221215
0.00350635
0.0301514
0.0313432
0.0325577
0.0339433
0.0354736
0.037137
0.0389536
0.0407967
0.041596
0.0382872
0.0258689
0.00395518
0.0299198
0.0311972
0.0322635
0.0333774
0.0349086
0.0367009
0.0386596
0.0408834
0.0427739
0.0417304
0.030366
0.00445249
0.0299371
0.031284
0.0325119
0.0334906
0.0347458
0.0364656
0.0383146
0.0405085
0.0427926
0.0437109
0.0351047
0.00502873
0.0185612
0.0192578
0.0209894
0.0228286
0.02443
0.0259218
0.0269108
0.0276282
0.0281657
0.0286538
0.0291565
0.0297278
0.0299764
0.0273346
0.0264891
0.0265765
0.0271049
0.0276404
0.0281536
0.0288115
0.0294049
0.0298816
0.0303455
0.0308594
0.0378486
0.0348413
0.0326613
0.0313727
0.0307542
0.0304982
0.0305892
0.0307803
0.0309926
0.0312484
0.0317392
0.0323317
0.0402182
0.0381399
0.036237
0.0346595
0.0336362
0.0330198
0.0327486
0.0326592
0.0328688
0.0331423
0.0335369
0.0341443
0.0305636
0.0318925
0.0331654
0.03416
0.035293
0.0367417
0.0382876
0.0401195
0.04231
0.0449028
0.0450967
0.020837
0.0318074
0.0330643
0.0342258
0.0352825
0.0364023
0.0374224
0.0385673
0.0398642
0.0415564
0.0439763
0.0482061
0.0348943
0.0334918
0.0344719
0.0354832
0.03639
0.0372863
0.0380656
0.0389834
0.0399099
0.0410241
0.0426971
0.0465838
0.0416159
0.0353666
0.0362253
0.0370242
0.0377543
0.0383278
0.0389106
0.0395701
0.0401653
0.0409079
0.0417677
0.043854
0.0426091
0.0185613
0.0192578
0.0209893
0.0228285
0.02443
0.0259218
0.0269108
0.0276282
0.0281657
0.0286539
0.0291566
0.0297278
0.0299763
0.0273346
0.0264891
0.0265766
0.0271049
0.0276404
0.0281536
0.0288115
0.0294049
0.0298816
0.0303455
0.0308594
0.0378486
0.0348414
0.0326613
0.0313728
0.0307543
0.0304982
0.0305892
0.0307803
0.0309926
0.0312484
0.0317392
0.0323317
0.0402183
0.0381399
0.0362372
0.0346596
0.0336362
0.0330198
0.0327486
0.0326592
0.0328688
0.0331423
0.0335369
0.0341444
0.0305637
0.0318926
0.0331655
0.0341601
0.0352931
0.0367418
0.0382877
0.0401197
0.0423101
0.0449029
0.0450967
0.020837
0.0318075
0.0330643
0.0342259
0.0352826
0.0364024
0.0374225
0.0385674
0.0398643
0.0415565
0.0439764
0.0482062
0.0348944
0.0334918
0.0344719
0.0354833
0.03639
0.0372864
0.0380657
0.0389835
0.03991
0.0410242
0.0426972
0.0465839
0.041616
0.0353666
0.0362253
0.0370242
0.0377544
0.0383279
0.0389107
0.0395702
0.0401654
0.0409079
0.0417678
0.043854
0.0426092
0.0185613
0.0192578
0.0209894
0.0228286
0.02443
0.0259218
0.0269109
0.0276282
0.0281657
0.0286539
0.0291566
0.0297278
0.0299764
0.0273347
0.0264892
0.0265766
0.027105
0.0276404
0.0281536
0.0288116
0.0294049
0.0298816
0.0303456
0.0308594
0.0378487
0.0348414
0.0326614
0.0313728
0.0307543
0.0304983
0.0305893
0.0307804
0.0309926
0.0312484
0.0317392
0.0323317
0.0402184
0.03814
0.0362372
0.0346596
0.0336362
0.0330199
0.0327486
0.0326592
0.0328688
0.0331423
0.0335369
0.0341443
0.0305637
0.0318926
0.0331655
0.0341601
0.035293
0.0367418
0.0382876
0.0401196
0.04231
0.0449028
0.0450967
0.020837
0.0318075
0.0330643
0.0342258
0.0352826
0.0364023
0.0374224
0.0385673
0.0398643
0.0415564
0.0439763
0.0482061
0.0348943
0.0334918
0.0344719
0.0354832
0.03639
0.0372864
0.0380656
0.0389834
0.0399099
0.0410241
0.0426971
0.0465838
0.0416159
0.0353666
0.0362253
0.0370242
0.0377543
0.0383278
0.0389106
0.0395701
0.0401653
0.0409079
0.0417677
0.043854
0.0426091
0.0185613
0.0192577
0.0209893
0.0228285
0.02443
0.0259218
0.0269108
0.0276282
0.0281657
0.0286539
0.0291565
0.0297278
0.0299763
0.0273346
0.0264891
0.0265766
0.0271049
0.0276404
0.0281536
0.0288115
0.0294049
0.0298816
0.0303455
0.0308594
0.0378486
0.0348414
0.0326613
0.0313728
0.0307543
0.0304982
0.0305892
0.0307803
0.0309926
0.0312484
0.0317392
0.0323317
0.0402183
0.0381399
0.0362372
0.0346596
0.0336362
0.0330198
0.0327486
0.0326592
0.0328688
0.0331423
0.0335369
0.0341443
0.0305636
0.0318926
0.0331654
0.0341601
0.035293
0.0367417
0.0382876
0.0401196
0.04231
0.0449028
0.0450966
0.020837
0.0318074
0.0330643
0.0342258
0.0352825
0.0364023
0.0374224
0.0385673
0.0398642
0.0415564
0.0439762
0.0482061
0.0348942
0.0334918
0.0344719
0.0354832
0.03639
0.0372863
0.0380656
0.0389834
0.0399099
0.0410241
0.042697
0.0465838
0.0416158
0.0353666
0.0362253
0.0370242
0.0377543
0.0383278
0.0389106
0.0395701
0.0401653
0.0409078
0.0417677
0.043854
0.042609
0.0374439
0.0360976
0.0349705
0.0342247
0.0338065
0.033648
0.0335868
0.0336629
0.0340242
0.034509
0.0353414
0.0366079
0.0356195
0.0347563
0.0340604
0.0336607
0.0334165
0.0331871
0.0329055
0.032763
0.0326809
0.0327263
0.033193
0.0344318
0.0338543
0.0331835
0.0326557
0.0322406
0.0316785
0.0309689
0.0302389
0.0293788
0.028384
0.0273893
0.0267706
0.0273987
0.0316702
0.0310734
0.0303209
0.0294988
0.0284132
0.0271613
0.0256739
0.0238608
0.0217634
0.0195363
0.0175609
0.0164301
0.0381804
0.039209
0.0392893
0.0395637
0.039753
0.0399853
0.0402054
0.0403937
0.040585
0.0407828
0.0403042
0.0392338
0.0364292
0.0393763
0.0391797
0.0392406
0.0392963
0.0393511
0.0393796
0.0393428
0.0391202
0.038632
0.0380141
0.0369309
0.0304116
0.037308
0.0378428
0.037883
0.0379073
0.0379005
0.0378312
0.0375158
0.0370629
0.0365897
0.0359601
0.0348244
0.0174917
0.0338158
0.0358969
0.0359929
0.0360127
0.0358917
0.035619
0.035198
0.0348525
0.0343752
0.0335966
0.0325237
0.037444
0.0360977
0.0349706
0.0342247
0.0338065
0.033648
0.0335868
0.033663
0.0340242
0.034509
0.0353414
0.036608
0.0356196
0.0347564
0.0340605
0.0336607
0.0334165
0.0331871
0.0329055
0.0327631
0.032681
0.0327263
0.033193
0.0344318
0.0338543
0.0331835
0.0326557
0.0322407
0.0316785
0.0309689
0.030239
0.0293788
0.028384
0.0273893
0.0267707
0.0273988
0.0316703
0.0310735
0.0303209
0.0294988
0.0284132
0.0271614
0.0256739
0.0238609
0.0217634
0.0195363
0.0175609
0.0164301
0.0381804
0.0392091
0.0392893
0.0395637
0.039753
0.0399853
0.0402054
0.0403938
0.0405851
0.0407829
0.0403043
0.0392338
0.0364293
0.0393763
0.0391797
0.0392406
0.0392963
0.0393511
0.0393796
0.0393428
0.0391203
0.0386321
0.0380141
0.0369309
0.0304117
0.0373081
0.0378428
0.037883
0.0379073
0.0379005
0.0378313
0.0375158
0.0370629
0.0365897
0.0359602
0.0348244
0.0174917
0.0338159
0.0358969
0.0359929
0.0360128
0.0358917
0.035619
0.035198
0.0348525
0.0343752
0.0335966
0.0325237
0.037444
0.0360977
0.0349706
0.0342248
0.0338065
0.0336481
0.0335868
0.033663
0.0340242
0.034509
0.0353414
0.0366079
0.0356196
0.0347564
0.0340605
0.0336607
0.0334165
0.0331871
0.0329055
0.032763
0.0326809
0.0327263
0.033193
0.0344318
0.0338543
0.0331835
0.0326557
0.0322407
0.0316785
0.0309689
0.0302389
0.0293788
0.028384
0.0273893
0.0267706
0.0273987
0.0316703
0.0310735
0.0303209
0.0294988
0.0284132
0.0271613
0.0256738
0.0238608
0.0217634
0.0195363
0.0175609
0.0164301
0.0381804
0.039209
0.0392893
0.0395637
0.039753
0.0399852
0.0402053
0.0403937
0.040585
0.0407828
0.0403042
0.0392338
0.0364292
0.0393763
0.0391797
0.0392405
0.0392962
0.0393511
0.0393795
0.0393427
0.0391202
0.038632
0.0380141
0.0369309
0.0304116
0.037308
0.0378428
0.0378829
0.0379073
0.0379005
0.0378312
0.0375158
0.0370628
0.0365897
0.0359601
0.0348244
0.0174917
0.0338158
0.0358969
0.0359928
0.0360127
0.0358917
0.0356189
0.035198
0.0348525
0.0343751
0.0335966
0.0325237
0.037444
0.0360976
0.0349706
0.0342247
0.0338065
0.033648
0.0335868
0.0336629
0.0340242
0.034509
0.0353414
0.0366079
0.0356196
0.0347564
0.0340604
0.0336607
0.0334165
0.0331871
0.0329055
0.032763
0.0326809
0.0327262
0.033193
0.0344318
0.0338543
0.0331835
0.0326557
0.0322406
0.0316785
0.0309689
0.0302389
0.0293788
0.028384
0.0273893
0.0267706
0.0273987
0.0316703
0.0310735
0.0303209
0.0294988
0.0284131
0.0271613
0.0256738
0.0238608
0.0217634
0.0195363
0.0175609
0.0164301
0.0381804
0.039209
0.0392892
0.0395637
0.0397529
0.0399852
0.0402053
0.0403937
0.040585
0.0407828
0.0403042
0.0392337
0.0364292
0.0393762
0.0391797
0.0392405
0.0392962
0.039351
0.0393795
0.0393427
0.0391202
0.038632
0.0380141
0.0369308
0.0304116
0.037308
0.0378428
0.0378829
0.0379072
0.0379005
0.0378312
0.0375157
0.0370628
0.0365896
0.0359601
0.0348243
0.0174917
0.0338158
0.0358969
0.0359928
0.0360127
0.0358916
0.0356189
0.0351979
0.0348525
0.0343751
0.0335965
0.0325236
0.028886
0.0280097
0.0268626
0.0255761
0.0239998
0.0221308
0.0198744
0.0171764
0.0140443
0.0105762
0.00645971
0.00334353
0.0252536
0.0240155
0.0225084
0.0207793
0.0187099
0.0162881
0.013446
0.010191
0.00649549
0.00315644
0.0014583
0.0014189
0.0208669
0.0192641
0.0173721
0.0151914
0.0126364
0.00970831
0.00626032
0.00282192
0.000885999
0.000451614
0.000479567
0.000607883
0.015785
0.0138007
0.0115071
0.00886761
0.00572578
0.00254061
0.000634326
0.000239862
0.000205553
0.000317777
0.000275379
0.000299105
0.0100795
0.007673
0.0048714
0.00212891
0.000552153
0.000222696
0.000210969
0.000261271
0.000245759
0.000246292
0.000242417
0.000239593
0.00371692
0.00155814
0.000475926
0.000327402
0.000237431
0.00025446
0.00025091
0.000249654
0.000249427
0.000248197
0.00024721
0.000245504
0.000371551
0.000865068
0.000253911
0.000259491
0.000257608
0.000256556
0.000256014
0.000255472
0.000255037
0.000254642
0.000254101
0.000252611
0.000267732
0.000270684
0.000265427
0.000263624
0.000262844
0.000262276
0.000261895
0.000261648
0.000261598
0.000261532
0.000261103
0.000259822
0.000272686
0.000271216
0.000269919
0.000268785
0.000267813
0.00026706
0.000266514
0.000266216
0.000266142
0.000266178
0.000266062
0.00026542
0.000269634
0.000268645
0.000267689
0.000266908
0.000266229
0.000265775
0.000265539
0.00026557
0.000265798
0.000266127
0.000266215
0.000265722
0.000229473
0.000230849
0.000232291
0.000233657
0.000235219
0.00023694
0.000238922
0.00024119
0.000243996
0.000247238
0.000250481
0.000252207
7.47507e-05
7.37661e-05
7.38778e-05
7.31114e-05
7.31979e-05
7.26194e-05
7.27024e-05
7.23395e-05
7.24303e-05
7.23362e-05
7.24323e-05
7.25234e-05
0.00512736
0.029231
0.0336866
0.0336968
0.0336197
0.0333126
0.0329788
0.0327076
0.0323448
0.0317565
0.0307991
0.0297753
0.00493228
0.0268452
0.031281
0.0308906
0.0306763
0.0304095
0.0301934
0.0299067
0.0293808
0.0285375
0.0274685
0.0263488
0.00480315
0.0245233
0.028178
0.0277444
0.0275582
0.0273777
0.0270656
0.0265729
0.0257773
0.0246831
0.0235129
0.022247
0.00465841
0.0219313
0.0246672
0.0245113
0.0243017
0.0239299
0.0234374
0.0225974
0.0215396
0.0203276
0.0189908
0.0174903
0.00447165
0.019154
0.0211961
0.0210279
0.0206458
0.0200065
0.0191439
0.018101
0.0168814
0.0154791
0.0139096
0.0121232
0.00420879
0.0163159
0.0177958
0.0171794
0.0164697
0.0155451
0.01449
0.0132134
0.0118227
0.0101852
0.00831625
0.00613096
0.0038884
0.0128205
0.0140588
0.0126408
0.0120234
0.010761
0.00954979
0.0079335
0.00625592
0.00429864
0.00249772
0.000986863
0.00346365
0.00902044
0.00984988
0.00787014
0.00727772
0.00542069
0.00419177
0.00249765
0.00139793
0.000534543
0.000295229
0.000518715
0.0028238
0.0044643
0.00492147
0.00294051
0.00256485
0.00108043
0.000766992
0.000418634
0.000288496
0.000289877
0.000273116
0.000275302
0.00210043
0.00105183
0.0012158
0.000489322
0.000445451
0.000331901
0.000270927
0.000266675
0.000273043
0.000271912
0.000271976
0.000270805
0.0013681
0.000186682
0.000227868
0.00018938
0.000206036
0.000202134
0.000217423
0.000218259
0.00022165
0.000224008
0.000226145
0.000227731
0.000475137
9.02483e-05
8.8055e-05
8.32372e-05
8.25761e-05
7.96251e-05
7.9695e-05
7.70986e-05
7.74701e-05
7.56412e-05
7.58957e-05
7.45835e-05
0.0288861
0.0280097
0.0268627
0.0255762
0.0239998
0.0221308
0.0198744
0.0171764
0.0140443
0.0105762
0.00645971
0.00334353
0.0252536
0.0240155
0.0225085
0.0207793
0.0187099
0.0162881
0.013446
0.0101911
0.00649551
0.00315644
0.0014583
0.0014189
0.0208669
0.0192641
0.0173721
0.0151914
0.0126364
0.00970833
0.00626034
0.00282193
0.000886007
0.00045162
0.00047957
0.000607886
0.0157851
0.0138008
0.0115072
0.00886764
0.00572581
0.00254063
0.000634334
0.00023987
0.000205559
0.000317782
0.000275385
0.00029911
0.0100796
0.00767303
0.00487143
0.00212893
0.000552162
0.000222703
0.000210966
0.000261272
0.000245761
0.000246295
0.00024242
0.000239597
0.00371695
0.00155815
0.000475936
0.000327421
0.00023743
0.000254459
0.000250909
0.000249653
0.000249426
0.000248197
0.000247209
0.000245503
0.000371536
0.000865025
0.000253909
0.00025949
0.000257606
0.000256554
0.000256013
0.000255471
0.000255036
0.00025464
0.000254099
0.00025261
0.000267731
0.000270682
0.000265426
0.000263623
0.000262843
0.000262274
0.000261894
0.000261647
0.000261597
0.000261531
0.000261102
0.00025982
0.000272686
0.000271216
0.000269918
0.000268784
0.000267812
0.000267059
0.000266513
0.000266215
0.000266141
0.000266177
0.000266061
0.000265419
0.000269633
0.000268644
0.000267688
0.000266907
0.000266229
0.000265774
0.000265539
0.000265569
0.000265797
0.000266127
0.000266215
0.000265722
0.000229473
0.000230849
0.00023229
0.000233657
0.000235219
0.00023694
0.000238922
0.00024119
0.000243995
0.000247238
0.00025048
0.000252207
7.47506e-05
7.3766e-05
7.38777e-05
7.31113e-05
7.31978e-05
7.26193e-05
7.27023e-05
7.23394e-05
7.24302e-05
7.23361e-05
7.24323e-05
7.25233e-05
0.00512737
0.029231
0.0336866
0.0336968
0.0336197
0.0333126
0.0329788
0.0327076
0.0323448
0.0317565
0.030799
0.0297753
0.00493228
0.0268452
0.031281
0.0308906
0.0306763
0.0304095
0.0301934
0.0299067
0.0293808
0.0285374
0.0274685
0.0263487
0.00480315
0.0245232
0.028178
0.0277444
0.0275582
0.0273777
0.0270656
0.0265728
0.0257773
0.0246831
0.0235128
0.0222469
0.00465841
0.0219313
0.0246672
0.0245113
0.0243017
0.0239299
0.0234373
0.0225974
0.0215396
0.0203275
0.0189908
0.0174902
0.00447165
0.019154
0.0211961
0.0210279
0.0206458
0.0200065
0.0191438
0.0181009
0.0168814
0.015479
0.0139096
0.0121231
0.00420879
0.0163158
0.0177958
0.0171794
0.0164697
0.0155451
0.0144899
0.0132133
0.0118226
0.0101851
0.00831617
0.00613089
0.0038884
0.0128204
0.0140588
0.0126408
0.0120233
0.0107609
0.00954972
0.00793342
0.00625584
0.00429856
0.00249766
0.000986833
0.00346365
0.00902041
0.00984985
0.0078701
0.00727767
0.00542063
0.00419171
0.00249759
0.00139789
0.000534511
0.000295232
0.000518693
0.00282379
0.00446427
0.00492144
0.00294047
0.00256481
0.00108041
0.000766973
0.000418636
0.000288494
0.000289876
0.000273117
0.000275302
0.00210043
0.00105182
0.00121579
0.000489317
0.000445446
0.000331899
0.000270927
0.000266675
0.000273044
0.000271913
0.000271976
0.000270805
0.00136809
0.000186681
0.000227867
0.00018938
0.000206037
0.000202134
0.000217424
0.00021826
0.00022165
0.000224008
0.000226146
0.000227732
0.000475135
9.02485e-05
8.80551e-05
8.32374e-05
8.25762e-05
7.96253e-05
7.96951e-05
7.70987e-05
7.74703e-05
7.56414e-05
7.58959e-05
7.45836e-05
0.0288861
0.0280097
0.0268626
0.0255762
0.0239998
0.0221308
0.0198744
0.0171764
0.0140443
0.0105762
0.0064597
0.00334353
0.0252536
0.0240155
0.0225084
0.0207793
0.0187099
0.0162881
0.013446
0.010191
0.00649549
0.00315643
0.0014583
0.0014189
0.0208669
0.0192641
0.0173721
0.0151914
0.0126364
0.0097083
0.00626031
0.00282192
0.000885999
0.000451618
0.000479571
0.000607885
0.015785
0.0138007
0.0115071
0.0088676
0.00572577
0.00254061
0.000634331
0.000239869
0.00020556
0.00031778
0.000275386
0.00029911
0.0100795
0.00767298
0.00487138
0.0021289
0.000552156
0.000222702
0.000210971
0.000261273
0.000245762
0.000246296
0.000242421
0.000239598
0.0037169
0.00155812
0.000475929
0.000327427
0.000237432
0.00025446
0.00025091
0.000249654
0.000249427
0.000248197
0.00024721
0.000245504
0.000371532
0.000865043
0.00025391
0.000259491
0.000257607
0.000256555
0.000256014
0.000255472
0.000255037
0.000254641
0.0002541
0.000252611
0.000267732
0.000270683
0.000265426
0.000263623
0.000262844
0.000262275
0.000261894
0.000261648
0.000261598
0.000261532
0.000261102
0.000259821
0.000272686
0.000271216
0.000269919
0.000268785
0.000267813
0.00026706
0.000266514
0.000266216
0.000266142
0.000266178
0.000266062
0.00026542
0.000269634
0.000268645
0.000267689
0.000266908
0.000266229
0.000265775
0.00026554
0.00026557
0.000265798
0.000266128
0.000266216
0.000265723
0.000229473
0.000230849
0.000232291
0.000233658
0.000235219
0.000236941
0.000238923
0.00024119
0.000243996
0.000247239
0.000250481
0.000252208
7.47508e-05
7.37662e-05
7.38779e-05
7.31115e-05
7.3198e-05
7.26195e-05
7.27025e-05
7.23397e-05
7.24304e-05
7.23363e-05
7.24325e-05
7.25235e-05
0.00512736
0.029231
0.0336866
0.0336968
0.0336197
0.0333126
0.0329787
0.0327075
0.0323447
0.0317564
0.030799
0.0297753
0.00493227
0.0268452
0.031281
0.0308906
0.0306763
0.0304094
0.0301934
0.0299066
0.0293807
0.0285374
0.0274684
0.0263487
0.00480315
0.0245232
0.0281779
0.0277443
0.0275582
0.0273776
0.0270655
0.0265728
0.0257773
0.024683
0.0235128
0.0222469
0.00465841
0.0219313
0.0246671
0.0245113
0.0243016
0.0239299
0.0234373
0.0225973
0.0215396
0.0203275
0.0189908
0.0174902
0.00447165
0.019154
0.0211961
0.0210278
0.0206457
0.0200064
0.0191438
0.0181009
0.0168814
0.015479
0.0139096
0.0121231
0.00420878
0.0163158
0.0177958
0.0171794
0.0164696
0.0155451
0.0144899
0.0132133
0.0118226
0.0101851
0.00831617
0.00613089
0.0038884
0.0128204
0.0140588
0.0126408
0.0120233
0.0107609
0.0095497
0.0079334
0.00625583
0.00429855
0.00249766
0.000986835
0.00346365
0.0090204
0.00984983
0.00787008
0.00727765
0.00542061
0.00419169
0.00249758
0.00139789
0.000534503
0.000295238
0.00051869
0.00282379
0.00446426
0.00492142
0.00294046
0.0025648
0.0010804
0.000766969
0.000418635
0.000288494
0.000289877
0.000273117
0.000275302
0.00210043
0.00105182
0.00121578
0.000489315
0.000445444
0.000331899
0.000270927
0.000266675
0.000273044
0.000271913
0.000271976
0.000270805
0.0013681
0.00018668
0.000227867
0.00018938
0.000206037
0.000202134
0.000217424
0.000218259
0.00022165
0.000224008
0.000226146
0.000227732
0.000475136
9.02486e-05
8.80549e-05
8.32374e-05
8.25762e-05
7.96253e-05
7.96951e-05
7.70987e-05
7.74703e-05
7.56413e-05
7.58959e-05
7.45836e-05
0.0288861
0.0280097
0.0268626
0.0255761
0.0239998
0.0221307
0.0198744
0.0171764
0.0140443
0.0105762