/*--------------------------------*- C++ -*----------------------------------*\
| =========                 |                                                 |
| \\      /  F ield         | OpenFOAM: The Open Source CFD Toolbox           |
|  \\    /   O peration     | Version:  2212                                  |
|   \\  /    A nd           | Website:  www.openfoam.com                      |
|    \\/     M anipulation  |                                                 |
\*---------------------------------------------------------------------------*/
FoamFile
{
    version     2.0;
    format      ascii;
    arch        "LSB;label=32;scalar=64";
    class       volScalarField;
    location    "0.04";
    object      epsilon;
}
// * * * * * * * * * * * * * * * * * * * * * * * * * * * * * * * * * * * * * //

dimensions      [0 2 -3 0 0 0 0];

internalField   nonuniform List<scalar> 
3072
(
3831.24
3206.02
3561.54
3512.19
3130.68
2787.57
3669.54
16246.7
48617.2
66713.8
75805.6
83615.3
10558.8
8768.07
6808.99
6604.64
9405.21
22894.6
33668
36288.8
49098.3
54592.6
57143.4
59006.6
15851.3
12071.9
14264.7
20406.1
26540.1
28528.4
32717.6
37592.3
43375.4
45414.6
47694.3
49303.5
21846.7
17655.7
19979.8
21735.1
25013
27706.6
32589.8
37011.8
40089
41831.7
43557.5
44853.5
24091.4
20407.2
21825.2
21912
24761
28245.9
32933.1
36562.4
38829.6
40316.1
41664.1
42723.2
24666.5
20660.6
21800.9
22197
25365.1
29456.2
33641.2
36592.3
38353.8
39603.9
40736.4
41731.2
23270.8
18982.4
20777.3
22648.3
26644.7
30912.5
34659
37181.5
38792
39986
41064.6
42073.2
22373.2
17316.7
20589.4
24347.3
29573.7
34035.9
37418.7
39637.7
41114.3
42244.1
43274.3
44293.1
22504.8
17733.6
23481.5
30386.9
37313.2
42070.6
45069.1
46800.2
47839.9
48579.2
49231.2
49915.4
24721.4
22464.2
36397.5
48287.5
56859.2
61266.1
62902.3
62970.8
62381.1
61610.3
60889.1
60357.2
29788.9
43355.9
73124.6
90504.2
97598.8
97734.8
94566.9
90218.8
85787.3
81758.7
78314.6
75488.7
133299
136360
151751
155850
151893
142112
131503
121409
112352
104500
97858.9
92318.9
87809
90456.3
90686.2
90573.1
88284.7
83467.6
76287.4
66683.9
54751.9
41746.5
27017.3
34596.5
60193.8
61084.2
61421.9
61552.3
61790.9
62963.7
65750.1
70503.8
76846.7
84503.2
89442.1
108560
50298.8
50878.3
51146.7
51432.6
52180.4
54110.5
57930.6
64534.8
75204.1
91320.1
115056
165202
45748.6
46379.4
46835.3
47329.2
48283.9
50321.9
54269
61266
73179.5
93483.7
130815
209175
43532.2
44178.5
44717.5
45358.4
46471.3
48603.8
52576.6
59614.1
71892.5
94108.3
139942
244591
42598.1
43364
44077.5
44913.2
46176.8
48376.1
52321.8
59315.8
71721.8
94686.4
145868
277831
43031.8
43959.4
44896.2
45958.3
47382.5
49621.6
53453.3
60211.9
72416.8
95537.3
149476
309364
45328.1
46386.8
47486
48684.8
50176.3
52354.7
55953.7
62328.9
74156.5
97252.6
153002
348001
50671.5
51507
52422
53464.1
54774.5
56672.6
59823.8
65574.6
76743.1
99520.5
156820
391866
60055.2
60010
60177.8
60580.2
61300.8
62579.2
64989.4
69786.3
79850.2
101645
160171
438240
73239.3
71526.9
70289
69490.8
69252.1
69698.8
71050.3
74493.7
82796.7
103133
163373
493317
87742.7
84042.3
81103.9
78838.8
77216.3
76395.3
76719.7
78490.2
84324.7
102354
164498
567208
3177.23
2691.77
3063.27
3016.04
2772.95
2366.44
2760.52
8695.15
36639.6
55088.2
63829.1
70778.5
8747.27
7425.05
5756.62
5276.08
7042.43
16279.8
28530.1
30652.3
41030
46775.4
49126
51109.8
13004.1
9819.26
10888.4
15704.7
23085.7
25229
27789.5
31611.9
36984.7
39111.1
41177.9
42861
17934.9
14355.7
16495.1
18630.4
21917.1
23559
27255.9
31372.1
34521.9
36178.6
37766.8
39036.4
20003.1
16785.1
18360.6
18620.2
20937.3
23833.4
27795.2
31421
33689.6
35065.2
36272.7
37249.6
20717.3
17346.8
18385.9
18746.7
21448.5
24975.2
28918.5
31789.7
33585
34669
35602.3
36425.7
20033.8
16086.2
17586
19206.5
22843.7
26784.6
30278.6
32716.8
34180
35166.8
36010.4
36795.4
19788.9
15118.9
17746.4
21147.4
26068.2
30238.7
33376.2
35407.2
36622.5
37460.5
38189.4
38917.5
20326.8
15849.9
20960.9
27473.9
34073.3
38503.4
41170.1
42573.8
43254.4
43582
43882.6
44242.2
23012.4
20737.7
33737.5
45145.3
53390.3
57443.3
58626.1
58248.9
57210.1
55996.3
54890.3
54030.8
27793
40431
68964.8
85806.1
92506.2
92252.5
88609.1
83842.1
79051.7
74726.9
71054.5
68067.2
122487
128711
144350
148095
143708
133361
122331
111992
102861
95075.1
88588.4
83280.1
74896.2
77398.8
77970.6
77938.7
76777.6
72744.1
67115.6
58933.7
48930.4
37456.6
24368.6
30886.2
52371.9
53310.9
53860.9
54231.3
54845.2
56110
58890.3
63346.8
69366.9
76620.3
81016.8
97936.6
43924.9
44596.6
45013.8
45421.7
46276.3
48212.5
51904.6
58182.3
68176.8
83141.9
104523
149932
39916.9
40590.2
41099.7
41660.5
42654.1
44666.8
48493.5
55179.1
66426.4
85350.5
119617
189718
37977.4
38581.9
39104.9
39737.2
40826.9
42890.5
46707.3
53422
65067.3
85986.8
128530
222191
37141.2
37795.6
38428.3
39198.7
40401.1
42510.6
46292
52967.7
64750
86430.9
134224
252519
37547.4
38298.1
39085.8
40023.5
41335.9
43444.9
47080.6
53496.3
65065.6
86903.3
137610
281443
39681.5
40497.1
41390.2
42424.7
43773.7
45802.9
49196.7
55223.5
66400.1
88148.5
140519
316460
44697.3
45245.5
45925.9
46789.5
47960.9
49723.5
52692.6
58125
68665.1
90090.1
143913
357822
53455.3
53156.4
53168.9
53454.1
54100.4
55295
57586.8
62152.1
71697.5
92404.4
147199
402448
65720.2
63939.7
62676.5
61889
61708.6
62220
63590.7
66981.3
75079.8
94440.5
151011
457814
78984.9
75554.2
72869.5
70854.7
69487.7
69023.2
69644.7
71745.7
77683.8
95247.6
154410
537634
3831.08
3205.89
3561.43
3512.08
3130.59
2787.48
3669.37
16245.7
48616.2
66713
75804.8
83614.5
10558.5
8767.81
6808.78
6604.43
9404.91
22893.9
33667.6
36288.3
49097.7
54592.1
57142.9
59006
15850.9
12071.6
14264.2
20405.7
26540
28528.2
32717.2
37591.9
43374.9
45414.1
47693.7
49303
21846
17655.2
19979.5
21735
25012.9
27706.2
32589.2
37011.3
40088.5
41831.2
43557
44853
24090.5
20406.7
21824.9
21911.8
24760.6
28245.4
32932.6
36561.9
38829.1
40315.5
41663.6
42722.7
24665.6
20660.1
21800.6
22196.6
25364.6
29455.6
33640.6
36591.7
38353.3
39603.4
40735.9
41730.7
23269.9
18981.9
20776.8
22647.8
26644.1
30912
34658.4
37181
38791.5
39985.5
41064
42072.7
22372.6
17316.3
20589
24346.9
29573.2
34035.4
37418.2
39637.2
41113.8
42243.6
43273.8
44292.6
22504.3
17733.3
23481.2
30386.6
37312.9
42070.3
45068.7
46799.8
47839.5
48578.7
49230.8
49914.9
24721.2
22464.1
36397.5
48287.5
56859.2
61266
62902.1
62970.6
62380.8
61610
60888.7
60356.8
29788.9
43356.1
73124.9
90504.7
97599.3
97735.2
94567.1
90218.9
85787.3
81758.6
78314.5
75488.5
133299
136360
151752
155850
151893
142113
131503
121409
112352
104500
97859
92318.9
87808.1
90455.5
90685.5
90572.4
88284.1
83467.1
76286.9
66683.5
54751.6
41746.3
27017.2
34596.4
60193.3
61083.7
61421.4
61551.9
61790.5
62963.3
65749.8
70503.5
76846.4
84502.9
89441.7
108559
50298.3
50877.8
51146.3
51432.2
52180
54110.2
57930.2
64534.4
75203.8
91319.6
115056
165201
45748.1
46379
46834.9
47328.8
48283.5
50321.5
54268.6
61265.6
73179.1
93483.2
130814
209174
43531.7
44178
44717.1
45358
46470.9
48603.4
52576.2
59613.7
71892.1
94107.9
139941
244590
42597.6
43363.5
44077.1
44912.7
46176.4
48375.7
52321.4
59315.4
71721.4
94685.9
145868
277830
43031.3
43958.9
44895.7
45957.9
47382.1
49621.2
53452.9
60211.5
72416.3
95536.8
149476
309362
45327.6
46386.4
47485.6
48684.4
50175.9
52354.3
55953.3
62328.5
74156.1
97252.1
153001
348000
50671
51506.6
52421.5
53463.7
54774.1
56672.2
59823.5
65574.2
76742.7
99520.1
156820
391865
60054.9
60009.7
60177.5
60579.9
61300.5
62578.9
64989.1
69786
79849.9
101645
160170
438238
73239.1
71526.7
70288.8
69490.6
69251.8
69698.6
71050.1
74493.5
82796.4
103132
163373
493315
87742.6
84042.2
81103.8
78838.7
77216.2
76395.2
76719.6
78490.1
84324.5
102354
164498
567206
3177.24
2691.78
3063.28
3016.05
2772.95
2366.44
2760.53
8695.15
36639.6
55088.3
63829.2
70778.6
8747.28
7425.06
5756.63
5276.08
7042.42
16279.8
28530.2
30652.3
41030.1
46775.5
49126.1
51109.9
13004.1
9819.26
10888.4
15704.7
23085.8
25229.1
27789.5
31612
36984.8
39111.2
41178
42861.1
17934.9
14355.7
16495.1
18630.4
21917.1
23559.1
27255.9
31372.2
34521.9
36178.7
37766.9
39036.5
20003.1
16785.1
18360.6
18620.3
20937.3
23833.5
27795.3
31421.1
33689.7
35065.2
36272.7
37249.7
20717.3
17346.8
18385.9
18746.7
21448.6
24975.3
28918.6
31789.7
33585
34669.1
35602.4
36425.8
20033.9
16086.2
17586
19206.6
22843.8
26784.6
30278.6
32716.9
34180.1
35166.9
36010.5
36795.5
19789
15118.9
17746.5
21147.5
26068.2
30238.7
33376.3
35407.2
36622.5
37460.5
38189.5
38917.5
20326.9
15850
20960.9
27474
34073.3
38503.5
41170.2
42573.8
43254.4
43582
43882.6
44242.3
23012.5
20737.8
33737.5
45145.3
53390.3
57443.3
58626.2
58248.9
57210.2
55996.3
54890.3
54030.8
27793
40430.9
68964.7
85806.1
92506.1
92252.4
88609.1
83842.1
79051.7
74726.9
71054.5
68067.2
122487
128711
144350
148094
143708
133360
122331
111992
102861
95075
88588.3
83280.1
74896.4
77399
77970.7
77938.9
76777.7
72744.3
67115.8
58933.8
48930.5
37456.7
24368.6
30886.3
52372
53311
53861.1
54231.4
54845.4
56110.1
58890.5
63347
69367
76620.5
81016.9
97936.9
43925
44596.7
45013.9
45421.8
46276.4
48212.6
51904.8
58182.5
68177
83142.1
104523
149932
39917
40590.3
41099.8
41660.6
42654.2
44666.9
48493.6
55179.3
66426.6
85350.7
119618
189719
37977.5
38582
39105
39737.3
40827
42890.6
46707.5
53422.1
65067.4
85987
128530
222191
37141.2
37795.7
38428.4
39198.8
40401.2
42510.6
46292.1
52967.9
64750.1
86431.2
134224
252520
37547.5
38298.2
39085.8
40023.6
41336
43445
47080.7
53496.4
65065.8
86903.5
137610
281444
39681.6
40497.2
41390.3
42424.7
43773.8
45803
49196.8
55223.6
66400.2
88148.7
140519
316461
44697.3
45245.6
45925.9
46789.5
47960.9
49723.5
52692.6
58125.1
68665.2
90090.3
143913
357823
53455.3
53156.5
53168.9
53454.2
54100.4
55295.1
57586.9
62152.2
71697.6
92404.6
147199
402449
65720.2
63939.7
62676.5
61889
61708.7
62220.1
63590.8
66981.3
75079.9
94440.7
151012
457815
78984.8
75554.2
72869.5
70854.7
69487.7
69023.2
69644.7
71745.8
77683.9
95247.7
154410
537635
215792
207842
195435
184093
172948
161359
150023
139209
129067
119896
111826
104803
139849
144569
146445
146655
145519
142962
139252
133830
127064
120277
113782
107528
99935.7
103998
107360
110225
112508
114057
114078
112948
110807
107970
104344
99787.5
79059.8
81906.4
84322.6
86455.6
88343.8
89927.5
90923.6
90813.8
89957.9
88387
86196.9
83591.7
98755.9
93626.5
89324
85763.8
82850
80636.2
79452.8
79937.9
82809.7
93239
125327
243980
101700
96427
91740.3
87603.6
83951.6
80878.4
78427.9
77279.4
77773.9
81586.9
94032.3
127943
95271
90843.9
86555.6
82371.4
78376.4
74740.2
71655.4
69398.3
68616
69351.8
73852.7
85443.5
80475.8
76911.5
73038.2
68911.2
65056.1
61696.5
59094.7
57309
56832.3
57180.1
59774.2
64757.9
219421
203422
186832
172986
160365
148025
136367
125592
115851
107314
99991.2
93812.7
135920
136203
134516
132202
129330
126044
121912
116628
110730
105054
99796.4
95050.8
90495.6
92779.7
94000.1
94876.4
95582.5
96061
95900.4
95150.4
93750.8
92007.5
89956.8
87591.1
67776.9
69673.2
71039.7
72162.9
73231
74331.7
75260.5
75965.1
76063.2
75728.4
74995.7
73813.7
88629.1
84291.7
80672.5
77735.4
75446.5
73898
73564.3
74547.3
78111.7
89239.2
121574
233475
90707.7
86743.5
83164.4
80032.5
77377.4
75342.5
74131.5
74328.8
75995
81319.7
95766.2
130819
84822
81929.2
79022.9
76225.4
73638.8
71474.3
69853.8
69370.7
70172.7
72690.9
79930.5
93973.1
72096
70036.9
67663.2
65149.8
62727.4
60657.7
59240.3
58843.9
60130.2
62264
67421.7
74929.8
215792
207842
195435
184093
172948
161359
150024
139209
129067
119896
111826
104803
139848
144569
146445
146655
145518
142962
139252
133830
127065
120277
113782
107528
99935.4
103998
107360
110225
112508
114057
114078
112948
110807
107970
104345
99787.6
79059.7
81906.4
84322.5
86455.4
88343.7
89927.4
90923.5
90813.7
89957.9
88387
86197
83591.7
98756
93626.6
89324
85763.8
82850
80636.2
79452.8
79937.9
82809.6
93238.9
125326
243980
101701
96427.1
91740.4
87603.6
83951.7
80878.4
78427.9
77279.4
77773.9
81586.8
94032.2
127943
95271.1
90844
86555.7
82371.5
78376.5
74740.3
71655.5
69398.3
68616
69351.7
73852.6
85443.4
80475.8
76911.6
73038.3
68911.3
65056.2
61696.6
59094.8
57309.1
56832.4
57180.1
59774.2
64757.8
219420
203422
186832
172986
160365
148024
136367
125592
115851
107314
99991.2
93812.6
135919
136203
134516
132202
129330
126044
121912
116628
110730
105054
99796.4
95050.7
90495.5
92779.5
93999.9
94876.2
95582.3
96060.8
95900.3
95150.4
93750.7
92007.4
89956.8
87591.1
67776.8
69673.1
71039.5
72162.8
73230.9
74331.6
75260.4
75965
76063.2
75728.4
74995.7
73813.7
88629.1
84291.7
80672.5
77735.4
75446.6
73898.1
73564.3
74547.3
78111.8
89239.4
121574
233476
90707.7
86743.5
83164.4
80032.5
77377.5
75342.5
74131.5
74328.8
75995.1
81319.9
95766.4
130820
84822
81929.2
79022.9
76225.4
73638.9
71474.4
69853.9
69370.7
70172.7
72691
79930.6
93973.2
72096
70036.9
67663.2
65149.9
62727.4
60657.8
59240.4
58844
60130.3
62264.1
67421.8
74930
65083.8
66298
67369.8
68260.3
68962.3
69353.3
69236.5
68354
66851.5
64816.9
62381.6
59639.2
49789.4
50189
50495.1
50687.5
50739.9
50522.4
49890.9
48745.4
47153.3
45265.1
43315.5
41393.5
37085.9
37155.1
37102.4
36953.2
36678.8
36182
35368.2
34196.9
32739.7
31233.5
30153.9
29850.3
27415.2
27371.1
27171.8
26877.7
26468.4
25876.1
25039.6
23945.1
22673.2
21534.7
21460.1
24495.2
56586.3
53391.7
50460.4
48116.4
46504.6
45663.5
45616.7
46284.7
47754
49716.7
52641.9
54838.3
39116.9
36730
35226.6
34638.3
34773
35534.3
36832
38545
40628.3
42783.7
44569.5
45489.2
28611.4
26085.4
25415.9
25830.4
26891.9
28393.6
30210.6
32208.5
34171.6
35717.4
36712.3
36794.8
24683.4
19424.4
18905.9
19743.4
21151
22861.3
24735.1
26602.7
28127.2
29149
29575.1
29079.5
55796.7
56412.1
56931
57385
57847.7
58262
58469.4
58351.1
57745.2
56855.5
55739.5
54158.9
45160
44722.4
44328.3
43917.4
43504.4
43004.9
42301.7
41335
40114.7
38884
37819.5
36668.1
35734.9
34643.3
33607.8
32584.1
31567.3
30494.7
29296.2
27965
26583.5
25394.7
24778.7
24685.1
27716.9
26315
24962.5
23650.7
22375.1
21096.8
19775.1
18415.8
17097
16047.2
15970.6
18209.9
51764.2
48915.3
46408.7
44422.1
43149.1
42846.8
43764.3
46025.6
49772.4
54156.9
59622.1
63464.4
34566.1
31639.4
29485.9
28174.8
27762.2
28410.5
30260.9
33352
37567.2
42241.5
46520.5
49017.5
23423
20214.9
18453.4
17689.4
17775.9
18779.7
20782.8
23784.3
27591.9
31633.9
34822.9
36606.2
18284.7
13154.2
11638.3
11243.8
11555.4
12586.4
14391.8
16958.5
20098.2
23320.6
25714.7
27050.1
65083.7
66297.9
67369.7
68260.1
68962.2
69353.2
69236.5
68354
66851.5
64816.9
62381.6
59639.2
49789.2
50188.9
50495
50687.3
50739.7
50522.3
49890.9
48745.4
47153.3
45265.1
43315.5
41393.5
37085.8
37155
37102.2
36953.1
36678.7
36182
35368.2
34196.9
32739.7
31233.5
30153.9
29850.3
27415.1
27371
27171.6
26877.5
26468.3
25876
25039.6
23945.1
22673.2
21534.7
21460.2
24495.2
56586.4
53391.8
50460.4
48116.5
46504.6
45663.5
45616.7
46284.7
47754
49716.7
52641.8
54838.3
39116.9
36730
35226.6
34638.3
34773
35534.3
36832
38545
40628.2
42783.7
44569.5
45489.1
28611.4
26085.4
25415.9
25830.4
26891.9
28393.5
30210.6
32208.5
34171.6
35717.3
36712.2
36794.8
24683.4
19424.4
18905.9
19743.4
21151
22861.2
24735.1
26602.6
28127.2
29148.9
29575.1
29079.4
55796.6
56412
56931
57385
57847.6
58261.9
58469.4
58351.1
57745.2
56855.6
55739.5
54159
45159.9
44722.4
44328.2
43917.4
43504.4
43004.9
42301.7
41335
40114.7
38884
37819.6
36668.2
35734.9
34643.3
33607.8
32584.1
31567.4
30494.8
29296.3
27965
26583.5
25394.8
24778.8
24685.3
27716.9
26315
24962.6
23650.7
22375.2
21096.8
19775.1
18415.9
17097.1
16047.3
15970.7
18210.1
51764.3
48915.3
46408.8
44422.2
43149.3
42846.9
43764.3
46025.7
49772.5
54157
59622.2
63464.5
34566.3
31639.5
29486
28175
27762.4
28410.7
30261
33352.1
37567.3
42241.7
46520.6
49017.7
23423.2
20215.1
18453.6
17689.6
17776.1
18779.9
20782.9
23784.4
27592
31634
34823.1
36606.4
18285
13154.5
11638.6
11244.1
11555.6
12586.6
14392
16958.7
20098.4
23320.7
25714.8
27050.3
20279.2
20209.3
19970
19633.7
19191.4
18597.3
17811.1
16826.8
15705.2
14747.5
15276
31543.9
15062.6
14999.1
14767.7
14439.6
14014.7
13463.1
12757
11890.3
10893.6
9873.22
9071.78
9211.64
11250.6
11201.8
10996.6
10698.7
10313.8
9822.67
9205.71
8455.63
7579.43
6589.35
5455.73
4397.99
8456.54
8421.43
8246.6
7986.31
7649
7222.73
6693.87
6055.42
5305.25
4433.34
3412.82
2735.88
6401.34
6375.94
6229.61
6006.9
5717.09
5353.23
4906.18
4370.87
3744.87
3023.33
2219.77
1836.4
4886.46
4866.87
4744.82
4556.19
4310
4002.61
3628.35
3184.7
2672.21
2095.7
1491.35
1257.52
3772.13
3755.26
3652.73
3493.18
3284.85
3026.28
2714.39
2348.94
1933.62
1479.65
1028.12
862.787
2961.93
2945.58
2857.83
2721.67
2544.42
2326.06
2065.31
1763.48
1426.34
1067.49
723.749
583.735
2395
2377.48
2299.72
2180.54
2026.52
1838.62
1616.73
1362.92
1083.85
792.822
519.688
379.652
2053.05
2032.41
1958.67
1847.91
1706.48
1536.28
1337.84
1113.26
870.138
619.349
384.386
225.336
2042.21
2012.85
1930.5
1809.53
1657.73
1478.91
1273.81
1043.37
798.55
547.732
312.071
109.031
3689.51
3621.68
3440.9
3197.39
2897.77
2554.19
2173.11
1745.88
1289.02
834.789
422.534
45.3181
35190.7
15018.9
14318.6
15308.5
16759.2
18405.6
20115.7
21646.4
22746
23378.5
23406
22605.6
14814.1
10596.6
10872.3
11956.7
13315.5
14778.1
16221.6
17393.7
18170.1
18508.8
18276.2
17389
8991.31
7584.99
8304.42
9377.42
10586.5
11829.7
12983.6
13853.8
14382.9
14514.7
14152.1
13304.2
6246.88
5560.08
6383.95
7374.55
8415.81
9440.77
10337.3
10973.1
11316.6
11314.7
10916.5
10170.8
4534.87
4151.69
4935.74
5811.72
6689.95
7518.42
8205.93
8668.86
8878.26
8799.58
8422.79
7803.8
3331.8
3135.53
3833.48
4590.14
5322.94
5986.89
6514.81
6850.73
6968.16
6856.01
6531.24
6036.07
2432.25
2380.49
2989.2
3638.22
4249.83
4784.9
5194.22
5438.81
5498.85
5382.29
5117.28
4728.46
1737.05
1808.65
2343.79
2906.42
3424.09
3863.62
4188.46
4371.42
4398.75
4292.44
4081.99
3777.16
1200.89
1371.46
1862.66
2366.57
2819.88
3195.09
3464.55
3608.6
3618.93
3527.23
3358.63
3113.38
771.14
1045.83
1538.22
2023.68
2449.57
2794.12
3035.75
3157.69
3158.94
3078.76
2930.55
2721.64
426.209
856.028
1450.45
2007.55
2479.56
2851.82
3106.14
3219.12
3210.15
3113.72
2954.31
2744.1
230.71
1210.21
2513.14
3664.2
4620.28
5355.03
5821.7
6018.1
5934.29
5686.58
5331.49
4905
21194.3
19731.8
18317.3
16967.4
15681.9
14435
13199.9
11972.8
10789.6
9788.26
9746.79
18601.6
16074.4
14708.9
13391.8
12151.8
10991.2
9891.59
8829.86
7789.81
6765.75
5757.37
4759.56
3684.98
12158.7
10970.1
9828.08
8763.7
7780.24
6863.47
5992.31
5144.43
4296.5
3407.21
2400.81
1381.77
9217.17
8229.66
7283.86
6407.77
5604.92
4864.2
4167.49
3492.7
2815.95
2102.01
1346.26
818.617
7033.69
6237.49
5476.21
4772.56
4130.09
3540.65
2989.9
2459.22
1930.63
1381.65
855.548
597.438
5424.99
4794.47
4190.92
3632.01
3121.5
2654.03
2219.15
1802.4
1392.15
974.217
607.27
460.299
4248.06
3752.33
3275.29
2831.06
2423.84
2050.72
1704.68
1374.88
1054.57
732.494
465.76
366.858
3398.77
3006.98
2626.12
2268.38
1938.63
1635.91
1355.91
1090.43
836.186
581.609
376.474
285.819
2810.45
2493.3
2180.42
1883.54
1608.33
1355.19
1121.78
901.555
693.658
484.826
316.962
213.296
2468.89
2196.89
1923.26
1661.06
1417.08
1192.62
986.53
793.004
612.648
431.141
281.537
144.758
2492.4
2219.22
1940.51
1672.21
1423.15
1194.73
986.205
791.349
611.771
430.256
279.125
82.4216
4419.32
3910.14
3398.93
2915.13
2470.76
2062.59
1689.88
1339.04
1018.8
675.901
421.253
100.418
23324.8
8748.44
7436.58
7298.73
7681.5
8599.49
10098.1
12164.7
14640.6
17129.4
18946.5
19973.7
7701.29
5181.28
4792.05
4848.85
5234.16
5999.83
7193.22
8806.39
10714.2
12613.5
14000.8
14800.7
3654.87
3136.45
3151.41
3306.2
3657.96
4276.31
5206.98
6446.43
7899.45
9342.13
10403.1
11027.6
2078.68
1981.26
2128.68
2315.01
2620.89
3113.38
3832.95
4778.67
5879.51
6973.41
7784.25
8270.24
1286.38
1302.89
1478.06
1663.11
1923.36
2314.93
2871.31
3592.49
4425.68
5254.77
5873.13
6249.12
839.766
885.398
1052.79
1223.7
1444.03
1757.68
2191.11
2743.9
3376.33
4005.29
4475.96
4764.86
559.585
616.343
767.069
920.724
1108.31
1363.3
1706.05
2134.92
2618.79
3097.66
3456.25
3676.99
371.476
436.543
571.066
708.5
870.186
1081.95
1359.59
1699.82
2076.21
2444.4
2720
2888.71
239.173
314.01
436.36
560.4
702.209
883.114
1116.47
1397.37
1700.2
1989.87
2207.7
2338.98
142.05
232.295
349.531
465.93
594.817
757.064
967.295
1219.09
1479.41
1715.67
1899.23
2009.4
69.4399
189.41
317.272
437.016
562.444
720.584
933.682
1199.22
1467.76
1699.42
1884.6
2002.06
28.816
274.054
515.051
701.881
874.923
1108.86
1466.35
1970.82
2502.69
2973.84
3359.05
3607.44
20279.1
20209.1
19969.8
19633.6
19191.3
18597.2
17811
16826.8
15705.2
14747.5
15276
31543.9
15062.4
14999
14767.6
14439.4
14014.6
13463
12756.9
11890.3
10893.6
9873.2
9071.75
9211.56
11250.4
11201.7
10996.5
10698.6
10313.7
9822.59
9205.65
8455.58
7579.39
6589.31
5455.68
4397.89
8456.38
8421.27
8246.46
7986.19
7648.89
7222.64
6693.8
6055.36
5305.19
4433.28
3412.75
2735.76
6401.18
6375.79
6229.47
6006.77
5716.98
5353.14
4906.09
4370.79
3744.8
3023.26
2219.69
1836.28
4886.3
4866.71
4744.68
4556.06
4309.89
4002.5
3628.25
3184.61
2672.13
2095.61
1491.25
1257.39
3771.96
3755.1
3652.58
3493.04
3284.73
3026.17
2714.29
2348.84
1933.52
1479.55
1028.01
862.659
2961.77
2945.42
2857.68
2721.53
2544.29
2325.94
2065.2
1763.37
1426.23
1067.38
723.64
583.613
2394.83
2377.32
2299.57
2180.39
2026.39
1838.5
1616.61
1362.8
1083.73
792.707
519.576
379.542
2052.88
2032.25
1958.52
1847.76
1706.34
1536.15
1337.71
1113.14
870.019
619.231
384.277
225.243
2042.02
2012.68
1930.34
1809.38
1657.59
1478.77
1273.68
1043.24
798.426
547.614
311.968
108.962
3689.21
3621.41
3440.65
3197.16
2897.56
2554
2172.93
1745.71
1288.86
834.647
422.428
45.2639
35190.7
15018.9
14318.6
15308.5
16759.2
18405.5
20115.6
21646.4
22746
23378.5
23405.9
22605.6
14814.1
10596.6
10872.2
11956.7
13315.5
14778.1
16221.6
17393.7
18170.1
18508.7
18276.2
17389
8991.26
7584.96
8304.4
9377.39
10586.5
11829.7
12983.5
13853.7
14382.8
14514.7
14152.1
13304.2
6246.82
5560.05
6383.91
7374.51
8415.77
9440.73
10337.3
10973
11316.6
11314.7
10916.5
10170.8
4534.81
4151.66
4935.7
5811.68
6689.91
7518.38
8205.88
8668.81
8878.22
8799.54
8422.77
7803.78
3331.75
3135.49
3833.44
4590.09
5322.9
5986.84
6514.76
6850.68
6968.11
6855.97
6531.21
6036.05
2432.2
2380.45
2989.16
3638.17
4249.78
4784.84
5194.17
5438.76
5498.8
5382.25
5117.25
4728.44
1737
1808.61
2343.74
2906.37
3424.03
3863.57
4188.4
4371.36
4398.7
4292.39
4081.95
3777.14
1200.85
1371.42
1862.61
2366.51
2819.82
3195.02
3464.49
3608.54
3618.88
3527.18
3358.59
3113.35
771.11
1045.79
1538.17
2023.62
2449.51
2794.05
3035.69
3157.63
3158.88
3078.71
2930.5
2721.61
426.189
855.991
1450.4
2007.49
2479.49
2851.75
3106.07
3219.05
3210.09
3113.67
2954.27
2744.07
230.697
1210.17
2513.07
3664.11
4620.18
5354.92
5821.6
6018
5934.2
5686.5
5331.43
4904.95
21194.3
19731.8
18317.4
16967.5
15681.9
14435.1
13200
11972.9
10789.7
9788.4
9746.96
18602
16074.5
14708.9
13391.9
12151.9
10991.3
9891.69
8829.98
7789.94
6765.89
5757.53
4759.77
3685.38
12158.7
10970.1
9828.13
8763.76
7780.32
6863.58
5992.43
5144.58
4296.66
3407.4
2401.04
1382.14
9217.17
8229.68
7283.9
6407.83
5605
4864.3
4167.61
3492.85
2816.13
2102.21
1346.49
818.947
7033.69
6237.51
5476.25
4772.61
4130.16
3540.75
2990.02
2459.37
1930.8
1381.85
855.774
597.728
5424.98
4794.48
4190.95
3632.06
3121.57
2654.12
2219.27
1802.55
1392.32
974.414
607.484
460.558
4248.05
3752.34
3275.32
2831.1
2423.9
2050.8
1704.79
1375.02
1054.73
732.682
465.961
367.083
3398.76
3006.99
2626.14
2268.41
1938.69
1635.99
1356.01
1090.56
836.343
581.789
376.663
286.012
2810.43
2493.3
2180.44
1883.57
1608.38
1355.27
1121.88
901.68
693.807
484.998
317.139
213.455
2468.87
2196.88
1923.27
1661.09
1417.13
1192.7
986.625
793.124
612.792
431.306
281.703
144.879
2492.38
2219.22
1940.52
1672.24
1423.2
1194.8
986.3
791.471
611.915
430.42
279.282
82.5006
4419.3
3910.14
3398.95
2915.18
2470.83
2062.69
1690.01
1339.21
1018.99
676.112
421.417
100.502
23325.4
8748.75
7436.88
7299.04
7681.79
8599.75
10098.4
12164.9
14640.8
17129.6
18946.6
19973.9
7701.78
5181.61
4792.37
4849.17
5234.47
6000.1
7193.45
8806.59
10714.4
12613.7
14000.9
14800.8
3655.33
3136.78
3151.75
3306.54
3658.27
4276.59
5207.22
6446.63
7899.62
9342.3
10403.3
11027.7
2079.11
1981.6
2129.03
2315.35
2621.21
3113.67
3833.19
4778.88
5879.69
6973.58
7784.42
8270.4
1286.8
1303.22
1478.4
1663.45
1923.68
2315.22
2871.56
3592.7
4425.87
5254.95
5873.3
6249.29
840.151
885.73
1053.13
1224.05
1444.35
1757.96
2191.35
2744.12
3376.52
4005.47
4476.14
4765.03
559.942
616.668
767.411
921.066
1108.63
1363.58
1706.3
2135.14
2618.99
3097.84
3456.42
3677.16
371.798
436.858
571.402
708.837
870.503
1082.23
1359.83
1700.03
2076.4
2444.58
2720.17
2888.88
239.451
314.31
436.688
560.732
702.52
883.389
1116.7
1397.58
1700.39
1990.05
2207.87
2339.15
142.273
232.575
349.851
466.256
595.123
757.335
967.53
1219.3
1479.59
1715.85
1899.41
2009.57
69.5931
189.674
317.591
437.345
562.752
720.857
933.921
1199.43
1467.96
1699.61
1884.78
2002.25
28.9201
274.358
515.458
702.302
875.318
1109.21
1466.68
1971.12
2502.97
2974.13
3359.34
3607.72
)
;

boundaryField
{
    rotor
    {
        type            epsilonWallFunction;
        blending        stepwise;
        value           nonuniform List<scalar> 
192
(
3831.24
3206.02
3561.54
3512.19
3130.68
2787.57
3669.54
16246.7
48617.2
66713.8
75805.6
83615.3
87809
90456.3
90686.2
90573.1
88284.7
83467.6
76287.4
66683.9
54751.9
41746.5
27017.3
34596.5
3177.23
2691.77
3063.27
3016.04
2772.95
2366.44
2760.52
8695.15
36639.6
55088.2
63829.1
70778.5
74896.2
77398.8
77970.6
77938.7
76777.6
72744.1
67115.6
58933.7
48930.4
37456.6
24368.6
30886.2
3831.08
3205.89
3561.43
3512.08
3130.59
2787.48
3669.37
16245.7
48616.2
66713
75804.8
83614.5
87808.1
90455.5
90685.5
90572.4
88284.1
83467.1
76286.9
66683.5
54751.6
41746.3
27017.2
34596.4
3177.24
2691.78
3063.28
3016.05
2772.95
2366.44
2760.53
8695.15
36639.6
55088.3
63829.2
70778.6
74896.4
77399
77970.7
77938.9
76777.7
72744.3
67115.8
58933.8
48930.5
37456.7
24368.6
30886.3
3831.24
10558.8
15851.3
21846.7
24091.4
24666.5
23270.8
22373.2
22504.8
24721.4
29788.9
133299
30886.3
97936.9
149932
189719
222191
252520
281444
316461
357823
402449
457815
537635
3177.23
8747.27
13004.1
17934.9
20003.1
20717.3
20033.8
19788.9
20326.8
23012.4
27793
122487
34596.5
108560
165202
209175
244591
277831
309364
348001
391866
438240
493317
567208
3831.08
10558.5
15850.9
21846
24090.5
24665.6
23269.9
22372.6
22504.3
24721.2
29788.9
133299
30886.2
97936.6
149932
189718
222191
252519
281443
316460
357822
402448
457814
537634
3177.24
8747.28
13004.1
17934.9
20003.1
20717.3
20033.9
19789
20326.9
23012.5
27793
122487
34596.4
108559
165201
209174
244590
277830
309362
348000
391865
438238
493315
567206
)
;
    }
    stator
    {
        type            epsilonWallFunction;
        blending        stepwise;
        value           nonuniform List<scalar> 
192
(
3689.51
3621.68
3440.9
3197.39
2897.77
2554.19
2173.11
1745.88
1289.02
834.789
422.534
45.3181
230.71
1210.21
2513.14
3664.2
4620.28
5355.03
5821.7
6018.1
5934.29
5686.58
5331.49
4905
4419.32
3910.14
3398.93
2915.13
2470.76
2062.59
1689.88
1339.04
1018.8
675.901
421.253
100.418
28.816
274.054
515.051
701.881
874.923
1108.86
1466.35
1970.82
2502.69
2973.84
3359.05
3607.44
3689.21
3621.41
3440.65
3197.16
2897.56
2554
2172.93
1745.71
1288.86
834.647
422.428
45.2639
230.697
1210.17
2513.07
3664.11
4620.18
5354.92
5821.6
6018
5934.2
5686.5
5331.43
4904.95
4419.3
3910.14
3398.95
2915.18
2470.83
2062.69
1690.01
1339.21
1018.99
676.112
421.417
100.502
28.9201
274.358
515.458
702.302
875.318
1109.21
1466.68
1971.12
2502.97
2974.13
3359.34
3607.72
35190.7
14814.1
8991.31
6246.88
4534.87
3331.8
2432.25
1737.05
1200.89
771.14
426.209
230.71
31543.9
9211.64
4397.99
2735.88
1836.4
1257.52
862.787
583.735
379.652
225.336
109.031
45.3181
23324.8
7701.29
3654.87
2078.68
1286.38
839.766
559.585
371.476
239.173
142.05
69.4399
28.816
18601.6
3684.98
1381.77
818.617
597.438
460.299
366.858
285.819
213.296
144.758
82.4216
100.418
35190.7
14814.1
8991.26
6246.82
4534.81
3331.75
2432.2
1737
1200.85
771.11
426.189
230.697
31543.9
9211.56
4397.89
2735.76
1836.28
1257.39
862.659
583.613
379.542
225.243
108.962
45.2639
23325.4
7701.78
3655.33
2079.11
1286.8
840.151
559.942
371.798
239.451
142.273
69.5931
28.9201
18602
3685.38
1382.14
818.947
597.728
460.558
367.083
286.012
213.455
144.879
82.5006
100.502
)
;
    }
    front
    {
        type            empty;
    }
    back
    {
        type            empty;
    }
}


// ************************************************************************* //
