/*--------------------------------*- C++ -*----------------------------------*\
| =========                 |                                                 |
| \\      /  F ield         | OpenFOAM: The Open Source CFD Toolbox           |
|  \\    /   O peration     | Version:  2212                                  |
|   \\  /    A nd           | Website:  www.openfoam.com                      |
|    \\/     M anipulation  |                                                 |
\*---------------------------------------------------------------------------*/
FoamFile
{
    version     2.0;
    format      ascii;
    arch        "LSB;label=32;scalar=64";
    class       volScalarField;
    location    "0.04";
    object      k;
}
// * * * * * * * * * * * * * * * * * * * * * * * * * * * * * * * * * * * * * //

dimensions      [0 2 -2 0 0 0 0];

internalField   nonuniform List<scalar> 
3072
(
3.53655
4.70023
5.04159
4.9949
4.62631
4.2818
5.143
13.8671
28.7962
35.5592
38.7207
41.3364
7.48572
10.9475
11.2644
10.7908
10.2885
14.7737
24.233
28.0862
40.5833
50.622
61.4287
71.204
10.4905
17.348
20.7575
23.0262
24.8202
26.8303
35.6607
46.4233
60.1915
71.9102
82.5514
91.3332
13.8031
25.114
26.2708
25.8566
29.0026
36.8707
49.6702
62.5688
74.9492
85.4453
94.5605
102.038
15.5743
29.7927
31.1353
30.9536
37.286
48.6349
61.8226
74.2053
85.1103
94.3314
102.303
108.925
16.6533
33.2507
36.3229
37.8653
46.5196
58.6187
71.1868
82.4107
91.9746
100.181
107.357
113.507
16.7999
33.9253
39.228
44.4045
55.0675
67.3064
78.9732
89.144
97.7798
105.239
111.827
117.623
17.1086
35.2957
43.5269
53.046
65.6893
77.7977
88.5295
97.6056
105.248
111.85
117.72
122.992
17.9061
38.7663
53.2434
68.3331
83.0239
94.7392
104.003
111.342
117.333
122.462
127.065
131.298
19.8256
47.6254
74.1198
95.0717
110.845
121.189
127.959
132.538
135.904
138.666
141.187
143.643
23.2967
65.3529
109.969
135.869
149.946
156.876
159.715
160.421
160.264
159.863
159.571
159.582
65.5206
115.392
163.493
184.44
191.885
193.364
191.682
188.572
185.055
181.62
178.557
175.993
42.7072
43.5613
43.6351
43.5988
42.8613
41.2877
38.8845
35.5486
31.1703
26.0149
19.4642
15.3359
79.6106
86.0455
89.6287
90.4945
89.4919
87.5255
84.7077
80.6795
74.0038
60.5732
43.044
35.3945
98.0538
102.596
104.856
105.381
104.967
103.999
102.688
100.697
96.9261
88.2583
66.1539
50.0528
107.81
111.972
114.57
115.928
116.501
116.757
117.045
117.164
116.134
111.096
92.5233
62.2388
114.224
118.295
121.195
123.18
124.654
126.11
127.976
130.248
131.756
130.096
115.97
73.0233
118.656
122.849
126.16
128.817
131.21
133.85
137.216
141.457
145.886
147.496
138.62
83.6789
122.664
126.979
130.644
133.863
137.007
140.605
145.243
151.271
158.212
163.109
159.128
94.2787
127.716
131.923
135.68
139.164
142.716
146.884
152.389
159.879
169.241
177.34
176.672
106.606
135.217
138.845
142.23
145.502
148.964
153.156
158.923
167.3
178.823
190.434
192.185
120.294
146.065
148.463
150.858
153.318
156.1
159.691
164.967
173.348
186.312
201.895
208.403
134.788
159.853
160.397
161.209
162.264
163.828
166.262
170.33
177.478
190.054
209.336
225.85
151.359
173.932
172.398
171.375
170.891
171.072
171.96
174.151
179.176
189.806
211.218
241.889
172.05
3.12166
4.18312
4.55966
4.51267
4.26681
3.83888
4.25405
9.14099
23.8474
31.2978
34.5266
36.9893
6.60295
9.78994
10.1788
9.71499
9.31874
11.2465
20.8335
24.1204
33.903
43.7718
53.276
62.333
9.19331
15.1077
18.0187
20.4363
23.2732
23.8482
29.9218
39.201
51.4033
62.4974
72.4035
80.7577
12.1019
22.2349
23.731
23.5448
25.7216
30.496
41.6263
53.5918
65.1645
75.0642
83.6183
90.7193
13.7584
26.1876
27.3878
26.8404
31.0515
40.658
52.9932
64.6094
74.9262
83.5685
90.9931
97.2089
14.8246
29.1891
31.4149
32.1289
39.3318
50.468
62.2651
72.8319
81.7676
89.3318
95.8901
101.52
15.2035
30.0616
34.1581
38.3686
48.0718
59.4957
70.3717
79.8077
87.7191
94.4315
100.296
105.452
15.7644
32.0489
38.973
47.6842
59.4059
70.5739
80.3671
88.5542
95.3315
101.074
106.115
110.637
16.7313
36.1844
49.2965
63.4677
77.1414
87.7991
96.0002
102.316
107.329
111.53
115.234
118.645
18.901
45.5126
69.9774
89.5808
104.3
113.58
119.27
122.807
125.208
127.101
128.76
130.408
22.2441
62.0072
104.009
128.478
141.444
147.303
149.079
148.853
147.856
146.751
145.852
145.312
61.928
108.964
154.689
174.107
180.099
180.333
177.613
173.766
169.752
166.031
162.837
160.267
38.4104
39.2613
39.4544
39.4437
39.0509
37.671
35.7019
32.7379
28.9197
24.2007
18.1703
14.2188
70.3932
76.6235
80.3853
81.6152
80.9397
79.4107
77.1179
73.7306
67.8696
55.8691
39.9723
33.0461
87.3046
91.7974
94.2393
95.0631
94.9477
94.3794
93.5286
92.0959
89.0265
81.4063
61.2094
46.9188
96.2648
100.346
103.01
104.544
105.371
105.956
106.659
107.289
106.888
102.807
85.9117
58.3169
102.193
106.083
108.932
110.973
112.597
114.285
116.479
119.194
121.194
120.401
107.864
68.4939
106.249
110.155
113.302
115.901
118.33
121.09
124.667
129.231
134.165
136.522
129.223
78.5161
109.962
113.881
117.277
120.339
123.42
127.035
131.768
137.986
145.297
150.91
148.56
88.5172
114.73
118.451
121.862
125.118
128.539
132.649
138.152
145.701
155.269
163.993
165.154
100.063
121.873
124.98
127.998
131.029
134.342
138.449
144.161
152.499
164.06
176.107
179.72
113.222
132.182
134.139
136.253
138.543
141.236
144.782
150.024
158.348
171.301
187.079
195.3
127.346
145.261
145.603
146.317
147.382
149.006
151.517
155.665
163.023
175.722
195.336
213.02
144.007
158.348
157.029
156.253
156.155
156.685
157.903
160.511
165.895
176.852
198.739
231.008
166.016
3.53645
4.70011
5.04148
4.9948
4.62622
4.2817
5.14284
13.8665
28.7958
35.5589
38.7204
41.3361
7.48556
10.9473
11.2643
10.7907
10.2884
14.7734
24.2326
28.0858
40.5827
50.6214
61.428
71.2033
10.4903
17.3477
20.7572
23.0261
24.8203
26.8299
35.66
46.4226
60.1907
71.9093
82.5505
91.3323
13.8029
25.1138
26.2708
25.8566
29.0023
36.8698
49.6692
62.5678
74.9482
85.4443
94.5595
102.037
15.574
29.7922
31.1348
30.9531
37.285
48.6337
61.8215
74.2042
85.1092
94.3303
102.302
108.924
16.6529
33.25
36.3221
37.8643
46.5184
58.6175
71.1856
82.4096
91.9735
100.18
107.356
113.506
16.7995
33.9245
39.2269
44.4032
55.0662
67.3051
78.9719
89.1428
97.7786
105.238
111.825
117.622
17.1083
35.295
43.5259
53.0448
65.6881
77.7965
88.5282
97.6043
105.247
111.849
117.719
122.991
17.9059
38.7658
53.2427
68.3323
83.023
94.7383
104.002
111.341
117.332
122.461
127.064
131.297
19.8255
47.6254
74.1197
95.0715
110.845
121.188
127.959
132.537
135.903
138.665
141.186
143.642
23.2968
65.3531
109.969
135.87
149.946
156.876
159.714
160.421
160.264
159.862
159.57
159.581
65.5206
115.392
163.493
184.44
191.885
193.364
191.682
188.571
185.055
181.62
178.556
175.992
42.7069
43.561
43.6349
43.5986
42.8611
41.2875
38.8844
35.5485
31.1702
26.0148
19.4641
15.3358
79.6099
86.0449
89.628
90.4939
89.4914
87.525
84.7073
80.6791
74.0034
60.573
43.0439
35.3944
98.0529
102.595
104.856
105.381
104.966
103.998
102.687
100.697
96.9256
88.2579
66.1537
50.0526
107.809
111.972
114.569
115.927
116.5
116.757
117.044
117.163
116.133
111.095
92.523
62.2386
114.223
118.294
121.194
123.179
124.654
126.109
127.975
130.248
131.755
130.096
115.97
73.0231
118.655
122.848
126.159
128.816
131.209
133.849
137.215
141.457
145.886
147.495
138.619
83.6787
122.663
126.978
130.643
133.862
137.006
140.604
145.242
151.27
158.211
163.108
159.128
94.2784
127.715
131.922
135.679
139.163
142.715
146.883
152.388
159.878
169.24
177.34
176.671
106.606
135.216
138.843
142.229
145.501
148.963
153.155
158.922
167.299
178.823
190.433
192.184
120.294
146.064
148.462
150.857
153.317
156.099
159.69
164.966
173.347
186.311
201.895
208.403
134.788
159.852
160.396
161.208
162.263
163.827
166.262
170.33
177.477
190.054
209.335
225.85
151.359
173.932
172.397
171.374
170.89
171.072
171.959
174.151
179.175
189.805
211.217
241.889
172.05
3.12167
4.18313
4.55966
4.51267
4.26681
3.83889
4.25405
9.14099
23.8475
31.2978
34.5267
36.9893
6.60296
9.78994
10.1788
9.71499
9.31874
11.2465
20.8335
24.1204
33.903
43.7719
53.2761
62.3331
9.19332
15.1077
18.0187
20.4363
23.2732
23.8483
29.9218
39.201
51.4034
62.4975
72.4036
80.7579
12.1019
22.2349
23.731
23.5448
25.7216
30.496
41.6263
53.5919
65.1646
75.0643
83.6184
90.7194
13.7584
26.1876
27.3878
26.8404
31.0516
40.6581
52.9932
64.6095
74.9263
83.5686
90.9932
97.2091
14.8246
29.1891
31.4149
32.1289
39.3318
50.468
62.2651
72.832
81.7677
89.332
95.8902
101.52
15.2035
30.0616
34.1582
38.3687
48.0719
59.4957
70.3718
79.8077
87.7192
94.4316
100.296
105.453
15.7644
32.049
38.9731
47.6843
59.4059
70.574
80.3672
88.5543
95.3316
101.074
106.115
110.637
16.7314
36.1845
49.2965
63.4678
77.1414
87.7991
96.0003
102.316
107.329
111.53
115.235
118.645
18.9011
45.5127
69.9774
89.5808
104.3
113.58
119.27
122.807
125.208
127.101
128.76
130.408
22.2442
62.0072
104.009
128.478
141.444
147.303
149.079
148.853
147.856
146.751
145.852
145.312
61.9279
108.964
154.689
174.107
180.099
180.333
177.613
173.766
169.752
166.031
162.836
160.267
38.4104
39.2613
39.4545
39.4437
39.051
37.671
35.7019
32.738
28.9198
24.2007
18.1703
14.2188
70.3933
76.6236
80.3854
81.6153
80.9399
79.4108
77.118
73.7307
67.8697
55.8692
39.9723
33.0461
87.3047
91.7975
94.2394
95.0632
94.9479
94.3796
93.5288
92.0961
89.0266
81.4065
61.2095
46.9189
96.2649
100.346
103.01
104.544
105.371
105.956
106.66
107.289
106.888
102.807
85.9119
58.317
102.193
106.083
108.932
110.973
112.597
114.285
116.479
119.194
121.195
120.401
107.864
68.494
106.25
110.156
113.302
115.901
118.33
121.09
124.667
129.231
134.165
136.522
129.224
78.5162
109.962
113.881
117.277
120.339
123.42
127.035
131.768
137.987
145.297
150.91
148.56
88.5173
114.73
118.451
121.862
125.119
128.539
132.649
138.152
145.701
155.27
163.993
165.154
100.063
121.874
124.98
127.998
131.029
134.342
138.449
144.161
152.499
164.061
176.107
179.72
113.222
132.183
134.139
136.253
138.543
141.236
144.783
150.024
158.348
171.302
187.079
195.3
127.346
145.261
145.603
146.318
147.382
149.006
151.517
155.665
163.023
175.722
195.336
213.02
144.008
158.348
157.029
156.253
156.155
156.685
157.903
160.511
165.895
176.852
198.74
231.008
166.017
205.775
206.72
208.981
211.706
212.999
212.355
209.569
205.637
201.182
196.542
192.086
187.98
207.417
203.928
203.758
205.247
207.299
208.237
207.482
205.874
203.088
199.361
195.343
191.173
194.429
193.046
192.29
192.435
193.482
194.646
194.873
194.255
192.768
190.642
187.758
184.132
178.282
178.267
177.791
177.346
177.153
177.062
176.706
175.876
174.406
172.273
169.622
166.479
184.299
181.12
178.464
176.355
174.894
174.462
175.11
177.755
184.591
201.032
235.618
224.519
187.013
183.106
179.568
176.464
173.821
171.861
171.064
171.616
174.85
184.045
208.189
208.472
180.167
176.22
172.373
168.709
165.332
162.455
160.468
159.833
161.216
165.562
179.77
184.638
162.937
159.201
155.414
151.79
148.569
145.997
144.452
144.327
146.002
148.832
157.413
163.334
201.386
196.922
196.591
197.1
196.586
194.505
190.817
186.552
182.153
177.854
173.934
170.541
199.726
191.843
187.986
186.699
186.402
185.943
184.827
183.22
180.953
178.11
175.279
172.578
181.884
177.86
173.89
171.66
170.707
170.624
170.611
170.428
169.874
168.861
167.579
166.054
162.869
160.969
158.822
156.799
155.422
154.908
154.718
154.578
154.282
153.68
152.734
151.381
167.699
165.369
163.486
162.132
161.419
161.707
162.964
166.448
174.34
192.191
230.182
222.2
170.014
167.582
165.287
163.285
161.69
161.053
161.361
163.261
168.291
179.761
207.962
213.296
164.228
162.101
159.708
157.338
155.226
153.889
153.624
154.674
158.618
165.45
184.003
194.939
149.484
147.151
144.58
141.996
139.767
138.615
138.555
139.972
144.702
150.481
163.97
175.176
205.775
206.72
208.981
211.706
212.999
212.355
209.569
205.637
201.182
196.542
192.086
187.979
207.417
203.927
203.758
205.247
207.299
208.237
207.482
205.874
203.088
199.361
195.343
191.173
194.429
193.045
192.289
192.434
193.482
194.646
194.873
194.255
192.768
190.641
187.758
184.132
178.282
178.266
177.79
177.345
177.152
177.062
176.706
175.876
174.406
172.273
169.622
166.478
184.298
181.12
178.464
176.354
174.894
174.461
175.109
177.755
184.59
201.031
235.617
224.518
187.013
183.106
179.568
176.464
173.82
171.86
171.064
171.616
174.85
184.045
208.189
208.471
180.167
176.22
172.373
168.708
165.332
162.455
160.468
159.832
161.216
165.561
179.769
184.638
162.937
159.201
155.414
151.79
148.569
145.997
144.452
144.327
146.001
148.831
157.412
163.334
201.386
196.922
196.591
197.1
196.585
194.505
190.817
186.552
182.153
177.854
173.934
170.541
199.726
191.842
187.985
186.699
186.402
185.942
184.826
183.22
180.953
178.11
175.279
172.578
181.884
177.86
173.89
171.659
170.707
170.624
170.611
170.428
169.874
168.861
167.579
166.054
162.869
160.968
158.821
156.799
155.422
154.908
154.718
154.578
154.282
153.68
152.734
151.381
167.699
165.369
163.486
162.132
161.419
161.707
162.965
166.448
174.34
192.192
230.183
222.201
170.014
167.582
165.287
163.285
161.69
161.053
161.361
163.262
168.291
179.762
207.963
213.296
164.229
162.101
159.708
157.338
155.226
153.889
153.624
154.674
158.618
165.45
184.004
194.939
149.485
147.151
144.58
141.996
139.767
138.615
138.555
139.973
144.703
150.482
163.971
175.177
158.58
157.554
156.305
155.113
154.084
153.005
151.583
149.648
147.027
143.767
140.103
136.384
134.943
133.555
131.936
130.338
128.801
127.127
125.078
122.496
119.237
115.389
111.31
107.686
112.928
111.58
109.884
108.121
106.316
104.307
101.9
98.9438
95.3185
91.1058
86.7091
83.1293
94.0357
92.88
91.2616
89.4817
87.571
85.4046
82.8189
79.6673
75.8129
71.2083
65.9287
60.7981
133.214
130.754
128.722
127.532
127.298
127.894
129.624
132.289
135.97
140.268
145.181
147.221
105.634
105.444
106.098
107.755
110.302
113.458
117.188
121.24
125.476
129.16
131.734
131.644
82.399
84.9913
88.2466
92.0742
96.4024
100.997
105.694
110.202
113.988
116.532
117.635
115.952
61.0831
68.3568
73.9328
79.1716
84.4241
89.6122
94.5708
98.8377
101.872
103.555
103.526
100.815
144.926
142.168
139.736
137.664
136.175
135.148
134.155
132.95
131.432
129.665
127.749
125.504
127.883
124.127
120.817
117.881
115.358
113.055
110.664
108.023
105.129
102.207
99.5633
97.1748
111.448
106.927
102.773
98.9483
95.4324
92.0578
88.6073
84.9807
81.2179
77.5214
74.3463
72.1146
95.996
91.0458
86.3476
81.9379
77.7968
73.7995
69.7862
65.6628
61.4084
57.0572
52.8397
49.4402
122.569
119.194
116.296
114.315
113.708
114.999
118.398
124.005
132.188
141.334
152.017
157.883
94.4206
91.1025
88.6221
87.503
88.1672
91.0099
96.1662
103.538
112.783
122.474
130.755
134.84
70.3978
68.0377
66.5379
66.3742
67.9525
71.5898
77.3633
85.0627
94.0699
103.011
109.611
112.837
49.5315
49.8694
49.8684
50.6254
52.7643
56.6457
62.3483
69.6332
77.8341
85.6375
91.0999
93.8224
158.579
157.553
156.305
155.113
154.084
153.005
151.583
149.648
147.027
143.767
140.103
136.384
134.943
133.554
131.935
130.338
128.801
127.127
125.078
122.496
119.237
115.389
111.31
107.686
112.928
111.58
109.883
108.121
106.316
104.307
101.9
98.9437
95.3184
91.1057
86.7091
83.1292
94.0351
92.8794
91.2611
89.4812
87.5706
85.4043
82.8187
79.6672
75.8128
71.2082
65.9286
60.7981
133.214
130.754
128.722
127.532
127.297
127.894
129.624
132.289
135.969
140.268
145.181
147.221
105.634
105.444
106.098
107.755
110.302
113.458
117.187
121.24
125.476
129.16
131.733
131.644
82.3989
84.9912
88.2465
92.0741
96.4022
100.996
105.694
110.202
113.988
116.531
117.635
115.951
61.0831
68.3567
73.9327
79.1715
84.4239
89.612
94.5706
98.8375
101.872
103.554
103.526
100.815
144.926
142.168
139.736
137.664
136.175
135.148
134.155
132.95
131.433
129.665
127.749
125.505
127.883
124.126
120.817
117.881
115.358
113.055
110.664
108.023
105.129
102.207
99.5635
97.1751
111.448
106.927
102.773
98.9485
95.4325
92.058
88.6075
84.9809
81.2181
77.5217
74.3466
72.1149
95.996
91.0458
86.3477
81.9381
77.7971
73.7998
69.7866
65.6632
61.4088
57.0576
52.8401
49.4406
122.569
119.194
116.297
114.315
113.708
114.999
118.398
124.005
132.188
141.335
152.018
157.884
94.421
91.103
88.6228
87.5038
88.1679
91.0106
96.1668
103.539
112.784
122.475
130.755
134.84
70.3983
68.0384
66.5389
66.3753
67.9535
71.5908
77.3642
85.0634
94.0705
103.011
109.611
112.837
49.532
49.8703
49.8695
50.6267
52.7656
56.6469
62.3492
69.634
77.8349
85.6381
91.1005
93.823
78.3142
77.3819
75.9102
74.1969
72.2851
70.0793
67.4393
64.215
60.2171
55.1131
47.7381
32.2808
65.3664
64.6395
63.3356
61.7331
59.8843
57.7171
55.1093
51.9095
47.8844
42.5093
34.1005
14.5392
54.7189
54.1624
53.0231
51.5511
49.8031
47.725
45.2112
42.1174
38.2062
32.9608
25.0551
9.08104
45.9399
45.5165
44.5272
43.191
41.5647
39.6079
37.2314
34.3077
30.629
25.7906
18.9573
6.76139
38.6654
38.3417
37.4841
36.2812
34.7868
32.9711
30.7612
28.0518
24.6815
20.3761
14.6719
5.29254
32.5945
32.3432
31.5993
30.5236
29.165
27.502
25.4767
23.0081
19.9822
16.2359
11.5341
4.19568
27.4748
27.2754
26.6294
25.6738
24.4517
22.9478
21.1174
18.9018
16.2283
13.0135
9.14798
3.32845
23.0834
22.9214
22.3612
21.5198
20.4341
19.0931
17.4634
15.5046
13.1755
10.4439
7.26431
2.6145
19.2
19.0662
18.5841
17.854
16.9067
15.7339
14.3108
12.6111
10.6151
8.32052
5.71281
1.9993
15.5468
15.4369
15.0316
14.4175
13.6179
12.6263
11.4247
9.99709
8.33415
6.45338
4.35645
1.43769
11.5567
11.4708
11.1547
10.6823
10.0667
9.30087
8.3736
7.27656
5.99208
4.5655
3.01737
0.901772
5.08091
5.01844
4.85002
4.61841
4.32519
3.97617
3.57012
3.08536
2.52039
1.8866
1.19822
0.270485
34.7231
54.2575
62.1447
68.2399
73.8434
79.099
83.8647
87.5729
89.9469
90.9229
90.0296
86.8121
19.9572
43.1744
52.353
58.8352
64.4321
69.4638
73.7655
76.8632
78.6746
79.0682
77.6229
74.2595
14.6279
35.079
44.2501
50.6988
56.0617
60.7046
64.4554
66.9879
68.3116
68.2546
66.5305
63.2619
11.7241
28.9657
37.5057
43.6401
48.6322
52.8079
56.0138
58.0675
58.9772
58.5971
56.8016
53.7798
9.6693
24.1409
31.8286
37.4956
42.0482
45.736
48.452
50.1037
50.6784
50.1007
48.3729
45.6858
8.03361
20.1781
26.9829
32.1188
36.2086
39.4288
41.7232
43.0379
43.3547
42.6852
41.119
38.7962
6.6422
16.8128
22.7826
27.3773
31.01
33.8056
35.7359
36.7725
36.908
36.2278
34.8604
32.8952
5.40903
13.8658
19.0772
23.1453
26.3397
28.7508
30.3676
31.182
31.199
30.5573
29.3907
27.7589
4.30814
11.1901
15.7278
19.2851
22.0544
24.1094
25.4509
26.0847
26.0304
25.4514
24.4683
23.1416
3.26488
8.67459
12.5625
15.5912
17.9207
19.6219
20.7036
21.1803
21.0842
20.5776
19.7599
18.7147
2.23775
6.11747
9.20311
11.5744
13.3677
14.6547
15.4452
15.7632
15.6406
15.2198
14.5845
13.8001
0.80046
2.41659
3.93345
5.05765
5.90302
6.51333
6.88645
7.04047
6.97496
6.77948
6.49423
6.1431
81.9771
76.9233
72.0331
67.4018
63.0279
58.8191
54.6468
50.3915
45.9197
40.949
34.5647
22.7004
69.6329
64.7472
59.9665
55.4186
51.1186
46.9978
42.9415
38.8046
34.3709
29.1593
21.7417
7.89355
58.9981
54.4727
50.0145
45.7603
41.7358
37.8886
34.1144
30.2594
26.0887
21.1393
14.4235
4.19685
49.9661
45.9107
41.8967
38.0542
34.414
30.9358
27.5282
24.0464
20.2818
15.8815
10.405
3.02477
42.3509
38.8053
35.2823
31.8967
28.6802
25.6035
22.5904
19.5155
16.2143
12.4378
8.11527
2.5035
35.9307
32.886
29.8491
26.9166
24.1195
21.4381
18.8124
16.1392
13.298
10.1091
6.68852
2.14693
30.4747
27.8937
25.3087
22.7991
20.3945
18.0831
15.8203
13.5233
11.1082
8.42949
5.68606
1.88208
25.7514
23.5862
21.4082
19.2828
17.2371
15.2657
13.337
11.3848
9.35432
7.10935
4.88623
1.6242
21.5147
19.7238
17.9119
16.1367
14.422
12.7662
11.1481
9.51381
7.83325
5.96359
4.16433
1.36127
17.4382
16.013
14.5428
13.1029
11.7084
10.3603
9.04456
7.7158
6.36667
4.83929
3.41183
1.07038
12.8701
11.8556
10.7876
9.72048
8.6839
7.68168
6.70564
5.71375
4.73206
3.56803
2.54084
0.748327
5.73059
5.2815
4.8105
4.34245
3.8891
3.44802
3.01902
2.58518
2.15454
1.63889
1.1958
0.459731
26.3964
35.4144
37.4576
39.0426
41.468
45.2591
50.5389
57.0914
64.2938
70.9801
75.6016
77.9786
12.903
25.0414
28.4151
30.524
33.0274
36.5522
41.2669
46.9982
53.2016
58.8926
62.8422
64.9435
8.0269
18.2563
21.9092
24.2157
26.6504
29.8331
33.9566
38.8909
44.1769
49.0062
52.3908
54.2489
5.62984
13.7296
17.1895
19.4787
21.7588
24.5828
28.1474
32.3586
36.837
40.9271
43.824
45.4576
4.17445
10.5813
13.6905
15.8509
17.9356
20.4159
23.4792
27.0585
30.8423
34.3004
36.772
38.197
3.20551
8.28552
11.0252
13.0047
14.8801
17.0447
19.6708
22.7097
25.9047
28.8235
30.9241
32.1574
2.49393
6.54575
8.9326
10.7092
12.373
14.2508
16.4991
19.0812
21.7814
24.2403
26.0181
27.0787
1.93434
5.18047
7.23636
8.79863
10.2489
11.8618
13.7804
15.9765
18.262
20.3264
21.8239
22.7322
1.46925
4.06789
5.80949
7.14463
8.37248
9.72877
11.3493
13.2128
15.147
16.8663
18.1179
18.8942
1.05699
3.1131
4.53986
5.6209
6.60047
7.68643
9.01296
10.5722
12.1938
13.5987
14.627
15.2863
0.667528
2.19141
3.2583
4.01987
4.68338
5.43299
6.41086
7.64916
8.92925
10.0105
10.8279
11.3526
0.20001
0.897813
1.3673
1.68063
1.94659
2.27971
2.74654
3.34498
3.92253
4.40055
4.7728
5.00528
78.3136
77.3813
75.9097
74.1965
72.2847
70.079
67.439
64.2148
60.217
55.113
47.738
32.2807
65.3657
64.6388
63.3351
61.7326
59.8839
57.7167
55.109
51.9092
47.8842
42.5091
34.1003
14.5391
54.7182
54.1617
53.0225
51.5506
49.8027
47.7246
45.2108
42.1171
38.2059
32.9605
25.0549
9.0809
45.9391
45.5158
44.5266
43.1904
41.5642
39.6074
37.231
34.3073
30.6287
25.7902
18.957
6.7612
38.6646
38.3409
37.4834
36.2806
34.7862
32.9705
30.7607
28.0514
24.681
20.3756
14.6714
5.2923
32.5937
32.3424
31.5986
30.5229
29.1643
27.5014
25.4761
23.0076
19.9817
16.2354
11.5336
4.19539
27.4739
27.2746
26.6286
25.6731
24.451
22.9471
21.1168
18.9012
16.2277
13.0128
9.14741
3.32812
23.0825
22.9206
22.3605
21.5191
20.4334
19.0925
17.4628
15.5039
13.1749
10.4432
7.26369
2.61414
19.1991
19.0654
18.5833
17.8533
16.906
15.7332
14.3101
12.6105
10.6144
8.31985
5.7122
1.99891
15.546
15.4362
15.0309
14.4168
13.6173
12.6257
11.4241
9.99651
8.33355
6.45277
4.35588
1.4373
11.5561
11.4703
11.1542
10.6818
10.0662
9.3004
8.37314
7.2761
5.9916
4.56501
3.01692
0.901394
5.08063
5.01819
4.84979
4.61818
4.32497
3.97596
3.56992
3.08516
2.52018
1.88639
1.19802
0.270269
34.7231
54.2574
62.1445
68.2398
73.8432
79.0988
83.8645
87.5727
89.9467
90.9227
90.0295
86.8121
19.9572
43.1743
52.3528
58.8349
64.4319
69.4635
73.7653
76.863
78.6744
79.068
77.6228
74.2594
14.6278
35.0789
44.2499
50.6986
56.0614
60.7044
64.4552
66.9877
68.3114
68.2544
66.5304
63.2618
11.7241
28.9655
37.5055
43.6398
48.632
52.8076
56.0136
58.0673
58.977
58.5969
56.8015
53.7797
9.66923
24.1407
31.8284
37.4953
42.048
45.7357
48.4517
50.1035
50.6782
50.1005
48.3727
45.6857
8.03353
20.1779
26.9826
32.1186
36.2084
39.4285
41.7229
43.0377
43.3544
42.685
41.1189
38.7961
6.64211
16.8126
22.7823
27.377
31.0098
33.8054
35.7356
36.7722
36.9078
36.2276
34.8603
32.8951
5.40894
13.8656
19.077
23.1451
26.3394
28.7505
30.3673
31.1817
31.1988
30.5571
29.3905
27.7588
4.30805
11.1899
15.7276
19.2849
22.0541
24.1091
25.4506
26.0845
26.0301
25.4512
24.4682
23.1414
3.2648
8.67443
12.5623
15.591
17.9205
19.6216
20.7033
21.1801
21.084
20.5774
19.7597
18.7146
2.23768
6.11734
9.20295
11.5742
13.3675
14.6545
15.445
15.7631
15.6404
15.2197
14.5843
13.8
0.800429
2.41653
3.93337
5.05756
5.90293
6.51324
6.88636
7.04039
6.97488
6.77941
6.49418
6.14307
81.9771
76.9234
72.0332
67.4021
63.0282
58.8195
54.6473
50.392
45.9202
40.9496
34.5652
22.7007
69.6329
64.7473
59.9667
55.4189
51.119
46.9983
42.9421
38.8052
34.3717
29.1601
21.7424
7.89412
58.9981
54.4728
50.0147
45.7606
41.7362
37.8891
34.115
30.2601
26.0896
21.1402
14.4245
4.19759
49.9661
45.9108
41.8969
38.0545
34.4144
30.9363
27.5289
24.0472
20.2828
15.8826
10.4062
3.02558
42.3509
38.8054
35.2825
31.897
28.6807
25.6041
22.5911
19.5164
16.2154
12.439
8.11652
2.50431
35.9307
32.8861
29.8492
26.9168
24.1199
21.4386
18.8131
16.1401
13.2991
10.1104
6.68979
2.14774
30.4747
27.8938
25.3088
22.7993
20.3948
18.0836
15.821
13.5242
11.1093
8.43075
5.68731
1.88285
25.7513
23.5863
21.4084
19.283
17.2374
15.2662
13.3376
11.3856
9.35535
7.11056
4.88742
1.62493
21.5146
19.7238
17.912
16.1369
14.4223
12.7666
11.1487
9.51457
7.83419
5.9647
4.16542
1.36194
17.4381
16.013
14.5429
13.103
11.7087
10.3606
9.04506
7.71646
6.36748
4.84024
3.41277
1.07098
12.87
11.8556
10.7876
9.7206
8.68408
7.68196
6.70601
5.71426
4.73267
3.56875
2.54153
0.748804
5.73057
5.2815
4.81052
4.34249
3.88917
3.44814
3.01918
2.5854
2.15481
1.63924
1.19611
0.459988
26.3969
35.4155
37.459
39.0441
41.4695
45.2604
50.54
57.0923
64.2946
70.9808
75.6023
77.9792
12.9036
25.0427
28.4168
30.5258
33.0291
36.5537
41.2682
46.9993
53.2025
58.8934
62.8429
64.9442
8.02757
18.2578
21.9111
24.2177
26.6523
29.8347
33.958
38.892
44.1779
49.0071
52.3916
54.2496
5.63063
13.7313
17.1916
19.4809
21.7608
24.5846
28.1489
32.3598
36.838
40.928
43.8248
45.4584
4.17534
10.5832
13.6928
15.8532
17.9377
20.4178
23.4808
27.0598
30.8434
34.3013
36.7729
38.1979
3.20649
8.28752
11.0275
13.007
14.8823
17.0467
19.6724
22.7111
25.9058
28.8245
30.925
32.1583
2.49499
6.54784
8.93502
10.7116
12.3752
14.2527
16.5007
19.0826
21.7826
24.2413
26.019
27.0796
1.93546
5.18257
7.23877
8.801
10.2511
11.8636
13.7819
15.9777
18.2631
20.3274
21.8249
22.7331
1.47039
4.06992
5.81179
7.14686
8.37448
9.73047
11.3507
13.214
15.148
16.8672
18.1188
18.895
1.0581
3.11494
4.54191
5.62288
6.60221
7.6879
9.01417
10.5732
12.1947
13.5995
14.6278
15.2871
0.66851
2.19288
3.25993
4.0214
4.68472
5.43411
6.41178
7.64994
8.92994
10.0112
10.8285
11.3532
0.200491
0.898477
1.36802
1.6813
1.94718
2.2802
2.74695
3.34532
3.92283
4.40083
4.77307
5.00554
)
;

boundaryField
{
    rotor
    {
        type            kqRWallFunction;
        value           nonuniform List<scalar> 
192
(
3.53655
4.70023
5.04159
4.9949
4.62631
4.2818
5.143
13.8671
28.7962
35.5592
38.7207
41.3364
42.7072
43.5613
43.6351
43.5988
42.8613
41.2877
38.8845
35.5486
31.1703
26.0149
19.4642
15.3359
3.12166
4.18312
4.55966
4.51267
4.26681
3.83888
4.25405
9.14099
23.8474
31.2978
34.5266
36.9893
38.4104
39.2613
39.4544
39.4437
39.0509
37.671
35.7019
32.7379
28.9197
24.2007
18.1703
14.2188
3.53645
4.70011
5.04148
4.9948
4.62622
4.2817
5.14284
13.8665
28.7958
35.5589
38.7204
41.3361
42.7069
43.561
43.6349
43.5986
42.8611
41.2875
38.8844
35.5485
31.1702
26.0148
19.4641
15.3358
3.12167
4.18313
4.55966
4.51267
4.26681
3.83889
4.25405
9.14099
23.8475
31.2978
34.5267
36.9893
38.4104
39.2613
39.4545
39.4437
39.051
37.671
35.7019
32.738
28.9198
24.2007
18.1703
14.2188
3.53655
7.48572
10.4905
13.8031
15.5743
16.6533
16.7999
17.1086
17.9061
19.8256
23.2967
65.5206
14.2188
33.0461
46.9189
58.317
68.494
78.5162
88.5173
100.063
113.222
127.346
144.008
166.017
3.12166
6.60295
9.19331
12.1019
13.7584
14.8246
15.2035
15.7644
16.7313
18.901
22.2441
61.928
15.3359
35.3945
50.0528
62.2388
73.0233
83.6789
94.2787
106.606
120.294
134.788
151.359
172.05
3.53645
7.48556
10.4903
13.8029
15.574
16.6529
16.7995
17.1083
17.9059
19.8255
23.2968
65.5206
14.2188
33.0461
46.9188
58.3169
68.4939
78.5161
88.5172
100.063
113.222
127.346
144.007
166.016
3.12167
6.60296
9.19332
12.1019
13.7584
14.8246
15.2035
15.7644
16.7314
18.9011
22.2442
61.9279
15.3358
35.3944
50.0526
62.2386
73.0231
83.6787
94.2784
106.606
120.294
134.788
151.359
172.05
)
;
    }
    stator
    {
        type            kqRWallFunction;
        value           nonuniform List<scalar> 
192
(
5.08091
5.01844
4.85002
4.61841
4.32519
3.97617
3.57012
3.08536
2.52039
1.8866
1.19822
0.270485
0.80046
2.41659
3.93345
5.05765
5.90302
6.51333
6.88645
7.04047
6.97496
6.77948
6.49423
6.1431
5.73059
5.2815
4.8105
4.34245
3.8891
3.44802
3.01902
2.58518
2.15454
1.63889
1.1958
0.459731
0.20001
0.897813
1.3673
1.68063
1.94659
2.27971
2.74654
3.34498
3.92253
4.40055
4.7728
5.00528
5.08063
5.01819
4.84979
4.61818
4.32497
3.97596
3.56992
3.08516
2.52018
1.88639
1.19802
0.270269
0.800429
2.41653
3.93337
5.05756
5.90293
6.51324
6.88636
7.04039
6.97488
6.77941
6.49418
6.14307
5.73057
5.2815
4.81052
4.34249
3.88917
3.44814
3.01918
2.5854
2.15481
1.63924
1.19611
0.459988
0.200491
0.898477
1.36802
1.6813
1.94718
2.2802
2.74695
3.34532
3.92283
4.40083
4.77307
5.00554
34.7231
19.9572
14.6279
11.7241
9.6693
8.03361
6.6422
5.40903
4.30814
3.26488
2.23775
0.80046
32.2808
14.5392
9.08104
6.76139
5.29254
4.19568
3.32845
2.6145
1.9993
1.43769
0.901772
0.270485
26.3964
12.903
8.0269
5.62984
4.17445
3.20551
2.49393
1.93434
1.46925
1.05699
0.667528
0.20001
22.7004
7.89355
4.19685
3.02477
2.5035
2.14693
1.88208
1.6242
1.36127
1.07038
0.748327
0.459731
34.7231
19.9572
14.6278
11.7241
9.66923
8.03353
6.64211
5.40894
4.30805
3.2648
2.23768
0.800429
32.2807
14.5391
9.0809
6.7612
5.2923
4.19539
3.32812
2.61414
1.99891
1.4373
0.901394
0.270269
26.3969
12.9036
8.02757
5.63063
4.17534
3.20649
2.49499
1.93546
1.47039
1.0581
0.66851
0.200491
22.7007
7.89412
4.19759
3.02558
2.50431
2.14774
1.88285
1.62493
1.36194
1.07098
0.748804
0.459988
)
;
    }
    front
    {
        type            empty;
    }
    back
    {
        type            empty;
    }
}


// ************************************************************************* //
