/*--------------------------------*- C++ -*----------------------------------*\
| =========                 |                                                 |
| \\      /  F ield         | OpenFOAM: The Open Source CFD Toolbox           |
|  \\    /   O peration     | Version:  2212                                  |
|   \\  /    A nd           | Website:  www.openfoam.com                      |
|    \\/     M anipulation  |                                                 |
\*---------------------------------------------------------------------------*/
FoamFile
{
    version     2.0;
    format      ascii;
    arch        "LSB;label=32;scalar=64";
    class       volScalarField;
    location    "0.04";
    object      k;
}
// * * * * * * * * * * * * * * * * * * * * * * * * * * * * * * * * * * * * * //

dimensions      [0 2 -2 0 0 0 0];

internalField   nonuniform List<scalar> 
3072
(
2.33184
3.22922
3.73852
3.73538
3.68256
3.38818
3.22032
4.08143
12.2823
22.712
26.9507
28.9888
4.87652
7.89232
8.40587
8.19497
8.35552
8.03336
12.1117
19.1445
21.9154
31.6849
38.485
46.2494
6.58066
11.2212
13.0721
14.6802
19.3154
21.6871
21.8619
26.8874
35.0042
44.9066
52.8514
60.107
8.77291
16.5867
18.679
19.4977
22.136
23.2679
27.0188
36.3203
45.8384
54.5199
61.5775
67.6444
10.3634
19.9906
22.0349
21.9357
23.4329
26.5603
34.7218
44.9559
53.7584
61.1351
67.1717
72.3167
11.6659
22.1766
23.6275
23.5347
26.3819
33.0594
42.7051
51.8897
59.428
65.5423
70.6249
75.0118
12.4899
23.6061
25.6067
26.9988
32.3831
41.1236
50.0415
57.7247
63.9669
69.0143
73.2697
77.019
13.7665
26.9037
30.8206
35.7137
44.0115
52.0172
59.0616
64.8297
69.5077
73.3321
76.6312
79.6487
15.5104
33.351
42.9431
53.3534
62.777
69.2374
73.5939
76.5796
78.8403
80.7286
82.5178
84.3864
18.538
43.004
62.9779
78.4612
88.637
93.2937
94.6394
94.252
93.3408
92.5181
92.1131
92.2783
21.1786
56.577
91.6789
111.542
120.559
122.409
120.506
116.469
112.111
108.211
105.153
103.078
53.0533
92.9106
130.631
146.989
151.009
149.815
144.708
138.06
131.139
124.788
119.467
115.346
30.6251
31.4399
31.9193
31.9936
32.0205
31.0294
29.5567
27.1381
23.9913
20.0169
14.7965
11.2338
53.1082
58.8707
62.8608
64.8667
64.9538
64.2582
62.9
60.4196
55.7357
45.8227
32.775
27.1352
66.0126
70.3479
73.1805
74.7186
75.4616
75.8179
75.8373
75.237
73.0849
66.973
50.2846
39.4596
72.5603
76.4028
79.3014
81.4112
83.0411
84.4979
86.0066
87.4193
87.7567
85.0372
71.36
49.0802
76.566
80.0575
82.9286
85.3567
87.6281
90.0657
92.9593
96.2845
99.031
99.2427
89.7039
57.8726
78.7781
82.0654
85.0142
87.8128
90.7484
94.177
98.4314
103.587
109.079
112.305
107.679
66.3519
80.3873
83.515
86.549
89.6862
93.2167
97.5205
102.997
109.853
117.665
124.069
124.014
74.9758
82.5263
85.3952
88.4045
91.7493
95.7105
100.684
107.152
115.51
125.572
134.915
138.086
84.8022
86.436
88.7604
91.5029
94.832
98.981
104.326
111.405
120.88
133
145.397
150.792
96.1372
93.0438
94.452
96.6395
99.6962
103.761
109.131
116.296
126.203
139.806
155.482
164.582
108.225
102.308
102.899
104.316
106.743
110.463
115.519
122.157
131.507
145.266
163.949
180.164
122.19
112.962
112.87
113.928
115.829
118.85
123.213
128.676
136.387
147.984
167.915
194.351
139.847
2.33186
3.22926
3.73855
3.7354
3.68257
3.38818
3.22033
4.08147
12.2825
22.7121
26.9508
28.9889
4.87658
7.89239
8.40591
8.19499
8.35552
8.03337
12.1118
19.1446
21.9155
31.6851
38.4853
46.2497
6.58075
11.2213
13.0722
14.6803
19.3153
21.6871
21.8619
26.8876
35.0045
44.9069
52.8517
60.1074
8.77304
16.5868
18.6792
19.4978
22.1361
23.268
27.0191
36.3207
45.8388
54.5203
61.5779
67.6449
10.3636
19.9908
22.035
21.9358
23.433
26.5605
34.7223
44.9563
53.7589
61.1356
67.1721
72.3172
11.666
22.1768
23.6277
23.5349
26.3821
33.0599
42.7056
51.8902
59.4285
65.5428
70.6254
75.0123
12.49
23.6063
25.6069
26.9991
32.3836
41.1241
50.0421
57.7253
63.9674
69.0148
73.2702
77.0195
13.7666
26.9039
30.8209
35.7141
44.012
52.0178
59.0621
64.8303
69.5083
73.3327
76.6317
79.6492
15.5104
33.351
42.9433
53.3536
62.7773
69.2378
73.5943
76.58
78.8408
80.7291
82.5183
84.387
18.5379
43.004
62.9779
78.4612
88.6371
93.2938
94.6396
94.2523
93.3412
92.5185
92.1135
92.2788
21.1785
56.577
91.6788
111.542
120.559
122.409
120.506
116.469
112.111
108.211
105.153
103.078
53.0533
92.9106
130.631
146.989
151.008
149.815
144.708
138.06
131.139
124.788
119.467
115.347
30.6252
31.44
31.9194
31.9937
32.0206
31.0295
29.5567
27.1381
23.9914
20.0169
14.7965
11.2338
53.1084
58.871
62.8611
64.867
64.9541
64.2584
62.9002
60.4197
55.7359
45.8228
32.7751
27.1352
66.0129
70.3482
73.1808
74.719
75.4619
75.8182
75.8376
75.2373
73.0851
66.9732
50.2848
39.4597
72.5607
76.4033
79.3018
81.4116
83.0415
84.4983
86.007
87.4196
87.7571
85.0375
71.3602
49.0803
76.5664
80.058
82.9291
85.3572
87.6286
90.0661
92.9597
96.2849
99.0314
99.2431
89.7042
57.8727
78.7786
82.0659
85.0147
87.8133
90.7489
94.1775
98.4319
103.587
109.079
112.305
107.679
66.3521
80.3879
83.5155
86.5495
89.6867
93.2173
97.521
102.997
109.853
117.666
124.069
124.015
74.976
82.5269
85.3958
88.405
91.7499
95.711
100.685
107.152
115.511
125.572
134.915
138.087
84.8024
86.4366
88.761
91.5035
94.8326
98.9815
104.326
111.405
120.881
133
145.398
150.792
96.1374
93.0442
94.4524
96.64
99.6967
103.762
109.131
116.296
126.203
139.807
155.482
164.582
108.225
102.308
102.899
104.316
106.744
110.464
115.519
122.157
131.507
145.266
163.95
180.165
122.19
112.962
112.87
113.928
115.83
118.85
123.213
128.676
136.387
147.985
167.915
194.351
139.847
2.33187
3.22927
3.73858
3.73544
3.68261
3.38822
3.22036
4.08148
12.2824
22.7121
26.9508
28.9889
4.8766
7.89244
8.40599
8.19509
8.35563
8.03344
12.1118
19.1446
21.9155
31.6851
38.4852
46.2496
6.58077
11.2214
13.0723
14.6804
19.3155
21.6872
21.862
26.8875
35.0044
44.9068
52.8516
60.1073
8.77306
16.5869
18.6793
19.4979
22.1362
23.268
27.019
36.3206
45.8387
54.5202
61.5779
67.6448
10.3636
19.9908
22.0351
21.9359
23.433
26.5605
34.7222
44.9563
53.7588
61.1355
67.172
72.3171
11.666
22.1769
23.6278
23.5349
26.3821
33.0598
42.7055
51.8902
59.4285
65.5428
70.6254
75.0122
12.49
23.6064
25.607
26.9991
32.3836
41.1241
50.042
57.7252
63.9674
69.0148
73.2702
77.0194
13.7667
26.904
30.821
35.7141
44.012
52.0178
59.0621
64.8303
69.5083
73.3327
76.6317
79.6492
15.5105
33.3512
42.9434
53.3538
62.7775
69.2379
73.5944
76.5801
78.8409
80.7291
82.5183
84.387
18.5381
43.0042
62.9781
78.4614
88.6373
93.2941
94.6398
94.2524
93.3413
92.5186
92.1136
92.2788
21.1786
56.5771
91.679
111.542
120.559
122.409
120.507
116.47
112.111
108.212
105.153
103.078
53.0534
92.9107
130.631
146.989
151.009
149.815
144.708
138.06
131.139
124.788
119.467
115.347
30.6252
31.44
31.9193
31.9937
32.0206
31.0295
29.5567
27.1381
23.9913
20.0169
14.7965
11.2338
53.1084
58.8709
62.861
64.8669
64.954
64.2584
62.9002
60.4197
55.7358
45.8228
32.7751
27.1352
66.0128
70.3481
73.1807
74.7189
75.4618
75.8182
75.8375
75.2372
73.085
66.9731
50.2847
39.4597
72.5606
76.4032
79.3017
81.4115
83.0414
84.4982
86.0069
87.4195
87.757
85.0374
71.3601
49.0803
76.5664
80.0579
82.929
85.3571
87.6285
90.066
92.9596
96.2848
99.0313
99.2429
89.7041
57.8726
78.7785
82.0658
85.0146
87.8132
90.7488
94.1774
98.4318
103.587
109.079
112.305
107.679
66.352
80.3878
83.5155
86.5494
89.6866
93.2172
97.5209
102.997
109.853
117.665
124.069
124.015
74.9759
82.5268
85.3957
88.405
91.7498
95.711
100.685
107.152
115.511
125.572
134.915
138.086
84.8024
86.4366
88.7609
91.5034
94.8325
98.9815
104.326
111.405
120.881
133
145.398
150.792
96.1373
93.0443
94.4525
96.64
99.6967
103.762
109.131
116.296
126.203
139.807
155.482
164.582
108.225
102.308
102.899
104.316
106.744
110.464
115.519
122.157
131.507
145.266
163.95
180.165
122.19
112.962
112.87
113.928
115.83
118.85
123.213
128.676
136.387
147.985
167.915
194.351
139.847
2.33185
3.22924
3.73853
3.73539
3.68256
3.38818
3.22032
4.08143
12.2823
22.712
26.9507
28.9888
4.87655
7.89234
8.40587
8.19497
8.35551
8.03334
12.1117
19.1445
21.9154
31.6849
38.485
46.2494
6.5807
11.2212
13.0721
14.6802
19.3153
21.6871
21.8619
26.8874
35.0043
44.9066
52.8514
60.1071
8.77297
16.5867
18.6791
19.4977
22.136
23.2679
27.0189
36.3204
45.8385
54.52
61.5776
67.6445
10.3635
19.9906
22.0349
21.9357
23.4329
26.5604
34.722
44.956
53.7586
61.1353
67.1718
72.3169
11.6659
22.1767
23.6275
23.5347
26.3819
33.0596
42.7053
51.8899
59.4282
65.5425
70.6251
75.012
12.4899
23.6062
25.6068
26.9989
32.3834
41.1238
50.0418
57.725
63.9671
69.0145
73.2699
77.0192
13.7666
26.9038
30.8207
35.7139
44.0118
52.0175
59.0619
64.83
69.508
73.3324
76.6315
79.649
15.5104
33.351
42.9432
53.3535
62.7772
69.2376
73.5942
76.5799
78.8406
80.7289
82.5181
84.3868
18.538
43.0039
62.9779
78.4612
88.6371
93.2938
94.6396
94.2522
93.3411
92.5184
92.1134
92.2787
21.1785
56.577
91.6788
111.542
120.559
122.409
120.507
116.469
112.111
108.212
105.153
103.078
53.0533
92.9106
130.631
146.989
151.009
149.815
144.708
138.06
131.139
124.788
119.467
115.347
30.6251
31.4399
31.9192
31.9936
32.0204
31.0294
29.5566
27.1381
23.9913
20.0168
14.7964
11.2338
53.1082
58.8707
62.8608
64.8667
64.9538
64.2582
62.9
60.4195
55.7357
45.8227
32.775
27.1352
66.0126
70.3479
73.1805
74.7187
75.4617
75.818
75.8373
75.237
73.0849
66.973
50.2846
39.4596
72.5604
76.4029
79.3015
81.4113
83.0412
84.498
86.0067
87.4193
87.7568
85.0372
71.36
49.0802
76.5661
80.0576
82.9288
85.3569
87.6283
90.0658
92.9594
96.2846
99.0311
99.2428
89.7039
57.8725
78.7783
82.0656
85.0144
87.813
90.7486
94.1772
98.4316
103.587
109.079
112.305
107.679
66.3519
80.3876
83.5152
86.5492
89.6864
93.217
97.5207
102.997
109.853
117.665
124.069
124.014
74.9758
82.5266
85.3955
88.4048
91.7496
95.7108
100.684
107.152
115.511
125.572
134.915
138.086
84.8022
86.4364
88.7608
91.5033
94.8324
98.9813
104.326
111.405
120.881
133
145.398
150.792
96.1371
93.0441
94.4523
96.6398
99.6966
103.761
109.131
116.296
126.203
139.806
155.482
164.582
108.225
102.308
102.899
104.316
106.744
110.464
115.519
122.157
131.507
145.266
163.95
180.164
122.19
112.962
112.87
113.928
115.83
118.85
123.213
128.676
136.387
147.985
167.915
194.351
139.847
164.47
161.643
162.395
163.754
163.589
161.678
157.082
150.93
144.005
137.228
131.176
126.134
164.753
158.279
155.577
155.381
155.948
155.681
154.218
151.271
146.872
142.081
137.322
133.047
152.778
148.854
145.621
144.087
143.923
144.267
144.435
143.96
142.79
140.769
138.235
135.977
139.943
138.297
136.393
134.836
134.295
134.541
135.198
135.857
136.297
136.299
136.017
135.78
123.144
122.875
123.82
125.418
127.765
130.867
134.37
139.333
147.45
163.341
192.146
183.744
131.066
131.372
132.249
133.331
134.422
135.39
136.758
139.208
143.542
152.426
172.735
172.246
135.953
136.548
136.822
136.598
135.9
134.931
134.419
134.698
136.516
140.787
152.679
155.319
136.687
136.267
134.698
132.642
130.24
128.508
127.672
127.77
129.127
131.509
137.887
140.921
164.47
161.643
162.395
163.754
163.589
161.678
157.082
150.93
144.005
137.228
131.176
126.134
164.753
158.28
155.578
155.381
155.948
155.681
154.218
151.271
146.872
142.082
137.322
133.047
152.778
148.854
145.622
144.087
143.923
144.268
144.435
143.96
142.79
140.769
138.235
135.978
139.943
138.298
136.394
134.837
134.296
134.542
135.198
135.858
136.298
136.299
136.017
135.78
123.144
122.875
123.82
125.418
127.766
130.867
134.37
139.334
147.45
163.342
192.146
183.745
131.066
131.373
132.249
133.332
134.422
135.391
136.758
139.208
143.542
152.426
172.736
172.246
135.953
136.548
136.822
136.598
135.9
134.931
134.42
134.698
136.516
140.787
152.679
155.319
136.687
136.267
134.698
132.642
130.24
128.508
127.672
127.771
129.127
131.509
137.887
140.921
164.47
161.643
162.396
163.754
163.589
161.679
157.083
150.93
144.005
137.228
131.176
126.135
164.753
158.28
155.578
155.382
155.949
155.681
154.218
151.272
146.872
142.082
137.322
133.047
152.779
148.854
145.622
144.087
143.924
144.268
144.435
143.961
142.79
140.769
138.235
135.978
139.943
138.298
136.394
134.837
134.296
134.542
135.198
135.858
136.298
136.299
136.017
135.78
123.144
122.875
123.82
125.418
127.766
130.867
134.37
139.333
147.45
163.342
192.146
183.745
131.066
131.373
132.249
133.332
134.422
135.391
136.758
139.208
143.542
152.426
172.735
172.246
135.953
136.548
136.822
136.598
135.9
134.931
134.42
134.698
136.516
140.787
152.679
155.319
136.687
136.267
134.698
132.642
130.24
128.508
127.672
127.77
129.127
131.509
137.887
140.921
164.47
161.643
162.395
163.754
163.589
161.678
157.082
150.93
144.005
137.228
131.176
126.135
164.753
158.28
155.578
155.381
155.948
155.681
154.218
151.271
146.872
142.082
137.322
133.047
152.778
148.854
145.622
144.087
143.923
144.268
144.435
143.96
142.79
140.769
138.235
135.978
139.943
138.298
136.394
134.837
134.296
134.542
135.198
135.857
136.298
136.299
136.017
135.78
123.144
122.875
123.82
125.418
127.765
130.867
134.37
139.333
147.45
163.341
192.146
183.744
131.066
131.372
132.249
133.332
134.422
135.391
136.758
139.208
143.542
152.426
172.735
172.246
135.953
136.548
136.822
136.598
135.9
134.931
134.419
134.698
136.516
140.787
152.679
155.319
136.687
136.267
134.698
132.642
130.239
128.507
127.671
127.77
129.127
131.509
137.887
140.92
128.902
128.046
127.463
127.465
127.857
128.46
128.961
129.17
128.901
128.171
127.371
126.939
121.575
121.547
121.691
122.056
122.378
122.401
121.614
119.986
117.468
114.517
111.952
111.082
114.94
115.097
115.201
115.218
114.687
113.376
111.045
107.732
103.641
99.5775
96.5706
96.344
106.63
106.459
105.864
104.858
103.004
100.227
96.4741
91.9805
87.2297
83.2113
81.1013
81.0049
127.192
124.888
121.853
121.13
120.657
121.289
122.442
124.065
126.075
128.412
130.314
130.611
112.285
112.407
111.142
112.403
113.884
115.982
118.078
120.172
121.907
123.064
123.712
122.946
100.292
102.878
102.629
105.308
107.822
110.555
112.951
114.78
116.008
116.711
116.747
115.699
87.3461
94.4702
94.914
98.0865
100.95
103.652
105.746
107.254
108.284
108.666
108.264
107.247
128.902
128.047
127.464
127.465
127.857
128.46
128.961
129.17
128.902
128.171
127.371
126.939
121.576
121.548
121.691
122.057
122.378
122.401
121.614
119.986
117.468
114.517
111.953
111.082
114.94
115.098
115.201
115.218
114.687
113.377
111.045
107.732
103.641
99.5776
96.5707
96.3441
106.63
106.46
105.864
104.858
103.004
100.227
96.4742
91.9806
87.2298
83.2114
81.1014
81.005
127.192
124.888
121.853
121.13
120.657
121.289
122.442
124.065
126.075
128.412
130.315
130.611
112.285
112.408
111.142
112.403
113.884
115.982
118.078
120.172
121.908
123.064
123.712
122.946
100.292
102.878
102.629
105.308
107.822
110.555
112.951
114.78
116.008
116.711
116.747
115.699
87.3461
94.4703
94.914
98.0866
100.95
103.652
105.746
107.254
108.284
108.666
108.264
107.247
128.903
128.047
127.464
127.465
127.857
128.46
128.961
129.17
128.902
128.171
127.371
126.939
121.576
121.548
121.691
122.057
122.378
122.401
121.614
119.986
117.468
114.517
111.952
111.082
114.94
115.098
115.201
115.218
114.687
113.376
111.045
107.732
103.641
99.5774
96.5706
96.3439
106.63
106.46
105.864
104.858
103.004
100.227
96.474
91.9804
87.2296
83.2112
81.1012
81.0048
127.192
124.888
121.853
121.13
120.657
121.289
122.442
124.065
126.075
128.412
130.314
130.611
112.284
112.407
111.142
112.403
113.883
115.982
118.078
120.172
121.907
123.064
123.712
122.946
100.292
102.878
102.629
105.308
107.822
110.555
112.951
114.78
116.007
116.711
116.747
115.699
87.346
94.4702
94.9139
98.0864
100.949
103.652
105.745
107.254
108.284
108.666
108.264
107.247
128.902
128.047
127.464
127.465
127.857
128.46
128.961
129.17
128.901
128.17
127.371
126.939
121.576
121.547
121.691
122.056
122.378
122.401
121.614
119.986
117.468
114.517
111.952
111.082
114.94
115.098
115.201
115.218
114.687
113.376
111.045
107.732
103.641
99.5774
96.5705
96.3439
106.63
106.459
105.864
104.858
103.004
100.227
96.474
91.9804
87.2296
83.2112
81.1012
81.0048
127.192
124.887
121.853
121.13
120.656
121.289
122.441
124.065
126.075
128.412
130.314
130.61
112.284
112.407
111.142
112.403
113.883
115.982
118.078
120.172
121.907
123.064
123.711
122.946
100.292
102.878
102.629
105.308
107.822
110.555
112.951
114.78
116.007
116.711
116.747
115.699
87.3459
94.4701
94.9138
98.0864
100.949
103.651
105.745
107.254
108.284
108.666
108.264
107.247
95.3891
94.2906
92.4443
89.9062
86.2687
81.5224
75.5777
68.4979
60.2889
50.6624
38.9441
29.2062
80.7411
78.2484
74.7224
70.2028
64.2744
56.8525
47.6562
36.5079
23.4782
12.1771
6.19623
4.91087
63.0317
58.8989
53.5174
46.8882
38.6674
28.8725
17.5371
7.46291
2.32606
0.966423
0.826321
0.843372
43.3401
37.6718
30.7606
22.6514
13.4296
5.34881
1.21843
0.267258
0.200153
0.186225
0.18952
0.191409
23.4369
16.8692
9.75667
3.79065
0.823318
0.149564
0.133719
0.115195
0.119054
0.117693
0.117123
0.115369
6.35028
2.35252
0.584136
0.107888
0.126828
0.113327
0.11427
0.113992
0.114014
0.113912
0.113966
0.114
0.39731
0.108182
0.119982
0.112615
0.11283
0.11296
0.113113
0.113263
0.113382
0.1135
0.113681
0.113797
0.114993
0.111109
0.111332
0.111558
0.111814
0.112086
0.112348
0.112631
0.112902
0.113184
0.113459
0.113695
0.108911
0.109156
0.109415
0.109697
0.109985
0.110292
0.11059
0.11089
0.111193
0.111502
0.111849
0.112232
0.102709
0.103008
0.103293
0.103621
0.103932
0.104284
0.104625
0.105006
0.105371
0.105765
0.106162
0.106567
0.0866715
0.0870335
0.0873875
0.0877459
0.0881107
0.088495
0.0888939
0.0893184
0.0897644
0.0902245
0.0906827
0.0910783
0.0511922
0.0498551
0.0500083
0.0489783
0.0490963
0.0483255
0.0484382
0.0479584
0.0480815
0.0479592
0.0480894
0.0482123
68.2329
84.7387
86.8153
89.8834
92.5298
94.7633
96.4556
97.7439
98.4376
98.4491
97.5991
96.4296
58.9698
74.1083
77.6976
80.2957
82.4045
84.1264
85.4603
86.3022
86.496
85.8263
84.4478
82.7219
52.3404
64.1769
67.4526
69.4898
71.0405
72.2608
73.0002
73.18
72.5435
71.0534
68.9451
66.2991
46.1947
54.0962
56.4842
58.0351
58.9702
59.4498
59.455
58.6222
57.0609
54.6986
51.7005
47.9559
40.0171
43.952
45.4616
46.2993
46.5076
46.0696
45.0659
43.2658
40.8398
37.6225
33.751
29.0344
33.3904
34.0807
34.6516
34.5775
33.8829
32.4689
30.596
27.9764
24.8884
21.0056
16.5595
11.4499
26.891
23.9848
24.3019
22.8682
21.6858
19.4015
16.9981
13.7621
10.4681
6.71893
3.59789
1.20652
20.1654
14.415
14.5696
11.8325
10.7289
7.74404
5.79493
3.13629
1.69366
0.427587
0.286641
0.0952802
12.6861
5.66496
5.97642
3.28227
2.92163
1.01229
0.773127
0.163306
0.173229
0.101699
0.110534
0.108494
6.65165
0.970985
1.10398
0.310113
0.322549
0.0995015
0.118548
0.0998148
0.102484
0.101885
0.102242
0.10249
2.6783
0.104147
0.136907
0.0802912
0.0880319
0.0832213
0.0848453
0.0850805
0.0852843
0.0856008
0.0859339
0.0863003
2.06779
0.0744081
0.0709481
0.0634073
0.0624178
0.0580468
0.0581569
0.0544364
0.0549684
0.0524087
0.0527661
0.0509607
95.3894
94.2909
92.4445
89.9063
86.2689
81.5226
75.5778
68.498
60.289
50.6625
38.9442
29.2062
80.7414
78.2486
74.7226
70.2029
64.2745
56.8526
47.6563
36.508
23.4783
12.1771
6.19625
4.91089
63.0319
58.8991
53.5176
46.8884
38.6676
28.8726
17.5372
7.46297
2.32608
0.966436
0.826328
0.843382
43.3403
37.672
30.7608
22.6515
13.4297
5.34886
1.21845
0.267267
0.200159
0.186232
0.189526
0.191416
23.437
16.8693
9.75677
3.79069
0.823336
0.149566
0.133722
0.115197
0.119056
0.117696
0.117126
0.115373
6.35034
2.35255
0.584151
0.107886
0.126828
0.113326
0.114269
0.113991
0.114014
0.113912
0.113965
0.114
0.397287
0.10818
0.119981
0.112614
0.112829
0.112959
0.113112
0.113261
0.113381
0.113499
0.11368
0.113796
0.114993
0.111109
0.111331
0.111557
0.111813
0.112085
0.112348
0.11263
0.112901
0.113183
0.113458
0.113694
0.108911
0.109156
0.109415
0.109696
0.109984
0.110291
0.110589
0.11089
0.111192
0.111501
0.111849
0.112231
0.102709
0.103008
0.103293
0.103621
0.103931
0.104284
0.104625
0.105006
0.105371
0.105764
0.106162
0.106566
0.0866715
0.0870335
0.0873875
0.0877459
0.0881107
0.088495
0.0888939
0.0893184
0.0897644
0.0902245
0.0906827
0.0910783
0.0511922
0.0498551
0.0500083
0.0489783
0.0490963
0.0483255
0.0484382
0.0479584
0.0480815
0.0479593
0.0480894
0.0482123
68.2329
84.7387
86.8153
89.8834
92.5298
94.7633
96.4556
97.7438
98.4376
98.449
97.599
96.4295
58.9698
74.1083
77.6976
80.2956
82.4044
84.1263
85.4602
86.3021
86.4958
85.8261
84.4477
82.7218
52.3404
64.1768
67.4525
69.4897
71.0404
72.2607
73.0001
73.1799
72.5433
71.0532
68.9449
66.2989
46.1946
54.0962
56.4841
58.035
58.9701
59.4497
59.4548
58.622
57.0607
54.6984
51.7002
47.9557
40.0171
43.9519
45.4615
46.2992
46.5075
46.0695
45.0657
43.2656
40.8396
37.6223
33.7508
29.0342
33.3903
34.0806
34.6515
34.5774
33.8828
32.4688
30.5959
27.9762
24.8882
21.0053
16.5593
11.4497
26.8909
23.9847
24.3018
22.8681
21.6857
19.4014
16.9979
13.7619
10.4679
6.71878
3.59779
1.20647
20.1654
14.4149
14.5696
11.8324
10.7288
7.74393
5.79482
3.13619
1.6936
0.42756
0.286638
0.0952805
12.6861
5.66491
5.97636
3.28222
2.92158
1.01226
0.773104
0.163301
0.173225
0.1017
0.110534
0.108494
6.65161
0.970971
1.10396
0.310106
0.322543
0.0995014
0.118548
0.0998152
0.102484
0.101885
0.102242
0.102491
2.67828
0.104147
0.136906
0.0802916
0.0880321
0.0832216
0.0848456
0.0850808
0.0852846
0.0856011
0.0859342
0.0863006
2.06777
0.0744081
0.0709481
0.0634073
0.0624178
0.0580468
0.058157
0.0544365
0.0549685
0.0524088
0.0527662
0.0509609
95.3892
94.2907
92.4443
89.9061
86.2687
81.5223
75.5776
68.4978
60.2888
50.6623
38.9441
29.2062
80.7412
78.2484
74.7224
70.2027
64.2743
56.8524
47.6561
36.5078
23.4782
12.177
6.19623
4.91087
63.0317
58.8989
53.5173
46.8882
38.6674
28.8724
17.5371
7.4629
2.32605
0.966429
0.826325
0.843377
43.34
37.6717
30.7606
22.6513
13.4296
5.3488
1.21843
0.267266
0.200158
0.186232
0.189526
0.191415
23.4368
16.8691
9.75662
3.79062
0.823322
0.149565
0.133723
0.115198
0.119057
0.117696
0.117126
0.115373
6.35021
2.35249
0.584139
0.107885
0.126828
0.113327
0.11427
0.113992
0.114014
0.113913
0.113966
0.114
0.397279
0.108179
0.119981
0.112614
0.112829
0.11296
0.113112
0.113262
0.113382
0.1135
0.113681
0.113796
0.114993
0.111109
0.111331
0.111558
0.111814
0.112086
0.112348
0.112631
0.112902
0.113184
0.113458
0.113695
0.108911
0.109156
0.109415
0.109697
0.109985
0.110292
0.11059
0.11089
0.111193
0.111502
0.111849
0.112232
0.102709
0.103008
0.103293
0.103622
0.103932
0.104284
0.104626
0.105006
0.105371
0.105765
0.106162
0.106567
0.0866719
0.0870339
0.0873879
0.0877463
0.0881111
0.0884954
0.0888943
0.0893188
0.0897648
0.0902249
0.0906831
0.0910788
0.0511923
0.0498552
0.0500085
0.0489784
0.0490964
0.0483256
0.0484384
0.0479586
0.0480817
0.0479594
0.0480896
0.0482125
68.2328
84.7386
86.8152
89.8833
92.5297
94.7631
96.4555
97.7437
98.4374
98.4489
97.5989
96.4294
58.9698
74.1082
77.6975
80.2955
82.4043
84.1263
85.4602
86.302
86.4958
85.8261
84.4476
82.7217
52.3404
64.1768
67.4525
69.4897
71.0403
72.2607
73
73.1798
72.5433
71.0532
68.9449
66.2989
46.1946
54.0961
56.4841
58.035
58.9701
59.4496
59.4548
58.622
57.0607
54.6983
51.7002
47.9557
40.0171
43.9519
45.4615
46.2991
46.5074
46.0694
45.0657
43.2656
40.8396
37.6223
33.7508
29.0342
33.3903
34.0806
34.6515
34.5773
33.8828
32.4687
30.5958
27.9762
24.8882
21.0053
16.5593
11.4497
26.8909
23.9847
24.3018
22.868
21.6857
19.4014
16.9979
13.7619
10.4679
6.71877
3.59779
1.20647
20.1654
14.4149
14.5696
11.8324
10.7288
7.74391
5.79481
3.13618
1.6936
0.427556
0.286641
0.095281
12.6861
5.6649
5.97635
3.28221
2.92157
1.01225
0.773101
0.1633
0.173225
0.1017
0.110535
0.108495
6.65162
0.970966
1.10396
0.310105
0.322542
0.0995013
0.118548
0.0998152
0.102484
0.101885
0.102242
0.102491
2.67829
0.104146
0.136906
0.0802915
0.0880319
0.0832215
0.0848455
0.0850807
0.0852845
0.085601
0.0859341
0.0863005
2.06779
0.0744084
0.070948
0.0634074
0.0624179
0.0580469
0.058157
0.0544365
0.0549686
0.0524088
0.0527662
0.0509609
95.3891
94.2906
92.4442
89.9061
86.2686
81.5223
75.5776
68.4978
60.2888
50.6624
38.9441
29.2062
80.7411
78.2484
74.7224
70.2027
64.2743
56.8524
47.6561
36.5079
23.4782
12.1771
6.19624
4.91089
63.0317
58.8988
53.5173
46.8882
38.6674
28.8724
17.5371
7.46292
2.32606
0.966435
0.826333
0.843385
43.34
37.6717
30.7606
22.6513
13.4296
5.34882
1.21845
0.267272
0.200163
0.186237
0.189532
0.191421
23.4368
16.8691
9.75664
3.79064
0.823329
0.149568
0.133726
0.1152
0.119059
0.117699
0.117129
0.115376
6.35022
2.3525
0.584144
0.107886
0.126829
0.113327
0.114271
0.113993
0.114015
0.113914
0.113967
0.114001
0.397283
0.108179
0.119982
0.112615
0.11283
0.11296
0.113113
0.113262
0.113382
0.1135
0.113681
0.113797
0.114993
0.111109
0.111332
0.111558
0.111814
0.112086
0.112348
0.112631
0.112902
0.113184
0.113459
0.113695
0.108912
0.109156
0.109415
0.109697
0.109985
0.110292
0.11059
0.11089
0.111193
0.111502
0.111849
0.112232
0.10271
0.103008
0.103293
0.103622
0.103932
0.104284
0.104626
0.105006
0.105371
0.105765
0.106162
0.106567
0.0866718
0.0870338
0.0873878
0.0877462
0.088111
0.0884953
0.0888942
0.0893187
0.0897647
0.0902248
0.090683
0.0910787
0.0511923
0.0498552
0.0500084
0.0489784
0.0490964
0.0483256
0.0484383
0.0479585
0.0480817
0.0479594
0.0480895
0.0482124
68.2328
84.7385
86.8151
89.8832
92.5296
94.763
96.4554
97.7436
98.4373
98.4488
97.5988
96.4294
58.9697
74.1082
77.6974
80.2955
82.4043
84.1262
85.4601
86.3019
86.4957
85.826
84.4476
82.7217
52.3403
64.1767
67.4524
69.4896
71.0402
72.2606
72.9999
73.1798
72.5432
71.0532
68.9449
66.2989
46.1945
54.096
56.484
58.0349
58.97
59.4496
59.4547
58.622
57.0607
54.6984
51.7003
47.9558
40.017
43.9518
45.4614
46.2991
46.5074
46.0694
45.0657
43.2656
40.8396
37.6223
33.7509
29.0343
33.3902
34.0805
34.6514
34.5773
33.8827
32.4687
30.5959
27.9763
24.8882
21.0054
16.5594
11.4498
26.8909
23.9846
24.3018
22.868
21.6857
19.4014
16.9979
13.762
10.468
6.71885
3.59786
1.20651
20.1653
14.4149
14.5695
11.8324
10.7288
7.74397
5.79488
3.13627
1.69367
0.427613
0.286667
0.0952962
12.6861
5.66493
5.97638
3.28227
2.92162
1.01231
0.773154
0.163339
0.173261
0.10173
0.110565
0.108525
6.65162
0.971012
1.104
0.310145
0.32258
0.0995314
0.118578
0.0998437
0.102513
0.101915
0.102272
0.10252
2.6783
0.104166
0.13693
0.0803124
0.0880547
0.0832438
0.084869
0.0851046
0.0853089
0.0856258
0.0859593
0.0863261
2.06778
0.0744148
0.0709594
0.0634152
0.0624264
0.0580542
0.0581649
0.0544441
0.0549762
0.0524162
0.0527737
0.0509681
)
;

boundaryField
{
    rotor
    {
        type            kqRWallFunction;
        value           nonuniform List<scalar> 
192
(
2.33184
3.22922
3.73852
3.73538
3.68256
3.38818
3.22032
4.08143
12.2823
22.712
26.9507
28.9888
30.6251
31.4399
31.9193
31.9936
32.0205
31.0294
29.5567
27.1381
23.9913
20.0169
14.7965
11.2338
2.33186
3.22926
3.73855
3.7354
3.68257
3.38818
3.22033
4.08147
12.2825
22.7121
26.9508
28.9889
30.6252
31.44
31.9194
31.9937
32.0206
31.0295
29.5567
27.1381
23.9914
20.0169
14.7965
11.2338
2.33187
3.22927
3.73858
3.73544
3.68261
3.38822
3.22036
4.08148
12.2824
22.7121
26.9508
28.9889
30.6252
31.44
31.9193
31.9937
32.0206
31.0295
29.5567
27.1381
23.9913
20.0169
14.7965
11.2338
2.33185
3.22924
3.73853
3.73539
3.68256
3.38818
3.22032
4.08143
12.2823
22.712
26.9507
28.9888
30.6251
31.4399
31.9192
31.9936
32.0204
31.0294
29.5566
27.1381
23.9913
20.0168
14.7964
11.2338
2.33184
4.87652
6.58066
8.77291
10.3634
11.6659
12.4899
13.7665
15.5104
18.538
21.1786
53.0533
11.2338
27.1352
39.4596
49.0802
57.8725
66.3519
74.9758
84.8022
96.1371
108.225
122.19
139.847
2.33186
4.87658
6.58075
8.77304
10.3636
11.666
12.49
13.7666
15.5104
18.5379
21.1785
53.0533
11.2338
27.1352
39.4596
49.0802
57.8726
66.3519
74.9758
84.8022
96.1372
108.225
122.19
139.847
2.33187
4.8766
6.58077
8.77306
10.3636
11.666
12.49
13.7667
15.5105
18.5381
21.1786
53.0534
11.2338
27.1352
39.4597
49.0803
57.8727
66.3521
74.976
84.8024
96.1374
108.225
122.19
139.847
2.33185
4.87655
6.5807
8.77297
10.3635
11.6659
12.4899
13.7666
15.5104
18.538
21.1785
53.0533
11.2338
27.1352
39.4597
49.0803
57.8726
66.352
74.9759
84.8024
96.1373
108.225
122.19
139.847
)
;
    }
    stator
    {
        type            kqRWallFunction;
        value           nonuniform List<scalar> 
192
(
0.0511922
0.0498551
0.0500083
0.0489783
0.0490963
0.0483255
0.0484382
0.0479584
0.0480815
0.0479592
0.0480894
0.0482123
2.06779
0.0744081
0.0709481
0.0634073
0.0624178
0.0580468
0.0581569
0.0544364
0.0549684
0.0524087
0.0527661
0.0509607
0.0511922
0.0498551
0.0500083
0.0489783
0.0490963
0.0483255
0.0484382
0.0479584
0.0480815
0.0479593
0.0480894
0.0482123
2.06777
0.0744081
0.0709481
0.0634073
0.0624178
0.0580468
0.058157
0.0544365
0.0549685
0.0524088
0.0527662
0.0509609
0.0511923
0.0498552
0.0500085
0.0489784
0.0490964
0.0483256
0.0484384
0.0479586
0.0480817
0.0479594
0.0480896
0.0482125
2.06779
0.0744084
0.070948
0.0634074
0.0624179
0.0580469
0.058157
0.0544365
0.0549686
0.0524088
0.0527662
0.0509609
0.0511923
0.0498552
0.0500084
0.0489784
0.0490964
0.0483256
0.0484383
0.0479585
0.0480817
0.0479594
0.0480895
0.0482124
2.06778
0.0744148
0.0709594
0.0634152
0.0624264
0.0580542
0.0581649
0.0544441
0.0549762
0.0524162
0.0527737
0.0509681
68.2329
58.9698
52.3404
46.1947
40.0171
33.3904
26.891
20.1654
12.6861
6.65165
2.6783
2.06779
29.2062
4.91087
0.843372
0.191409
0.115369
0.114
0.113797
0.113695
0.112232
0.106567
0.0910783
0.0482123
68.2329
58.9698
52.3404
46.1946
40.0171
33.3903
26.8909
20.1654
12.6861
6.65161
2.67828
2.06777
29.2062
4.91089
0.843382
0.191416
0.115373
0.114
0.113796
0.113694
0.112231
0.106566
0.0910783
0.0482123
68.2328
58.9698
52.3404
46.1946
40.0171
33.3903
26.8909
20.1654
12.6861
6.65162
2.67829
2.06779
29.2062
4.91087
0.843377
0.191415
0.115373
0.114
0.113796
0.113695
0.112232
0.106567
0.0910788
0.0482125
68.2328
58.9697
52.3403
46.1945
40.017
33.3902
26.8909
20.1653
12.6861
6.65162
2.6783
2.06778
29.2062
4.91089
0.843385
0.191421
0.115376
0.114001
0.113797
0.113695
0.112232
0.106567
0.0910787
0.0482124
)
;
    }
    front
    {
        type            empty;
    }
    back
    {
        type            empty;
    }
}


// ************************************************************************* //
