/*--------------------------------*- C++ -*----------------------------------*\
| =========                 |                                                 |
| \\      /  F ield         | OpenFOAM: The Open Source CFD Toolbox           |
|  \\    /   O peration     | Version:  2212                                  |
|   \\  /    A nd           | Website:  www.openfoam.com                      |
|    \\/     M anipulation  |                                                 |
\*---------------------------------------------------------------------------*/
FoamFile
{
    version     2.0;
    format      ascii;
    arch        "LSB;label=32;scalar=64";
    class       volScalarField;
    location    "0.04";
    object      nut;
}
// * * * * * * * * * * * * * * * * * * * * * * * * * * * * * * * * * * * * * //

dimensions      [0 2 -1 0 0 0 0];

internalField   nonuniform List<scalar> 
3072
(
0.000293807
0.000620175
0.000642301
0.00063932
0.000615279
0.000591927
0.000648729
0.00106524
0.00153505
0.00170581
0.00178003
0.00183917
0.000477633
0.00123017
0.00167718
0.00158672
0.00101294
0.000858006
0.00156978
0.0019564
0.00301906
0.00422462
0.00594317
0.00773305
0.000624839
0.00224369
0.00271851
0.00233845
0.00208905
0.00227099
0.00349816
0.00515959
0.00751743
0.0102477
0.0128595
0.0152273
0.000784898
0.00321506
0.00310886
0.00276836
0.00302657
0.00441593
0.00681323
0.00951958
0.0126111
0.0157077
0.0184756
0.0208914
0.000906148
0.00391451
0.00399752
0.00393534
0.00505319
0.00753673
0.0104449
0.0135543
0.0167897
0.0198645
0.0226076
0.0249939
0.00101189
0.00481617
0.00544665
0.00581343
0.00767855
0.0104988
0.0135572
0.016704
0.0198505
0.0228073
0.0254635
0.0277859
0.00109156
0.00545682
0.0066657
0.0078354
0.0102429
0.0131892
0.0161952
0.0192353
0.0221819
0.0249282
0.0274072
0.0295954
0.00117745
0.00647472
0.00828161
0.0104015
0.0131319
0.0160044
0.0188508
0.0216313
0.0242483
0.0266531
0.0288215
0.0307369
0.00128224
0.00762699
0.0108654
0.0138299
0.0166259
0.019201
0.0216001
0.0238403
0.0258997
0.0277842
0.0295156
0.0310831
0.00143094
0.00908719
0.0135844
0.0168466
0.0194481
0.0215749
0.0234272
0.0251064
0.0266473
0.0280884
0.0294642
0.0307667
0.00163975
0.00886593
0.014884
0.0183576
0.0207333
0.0226623
0.0242769
0.0256725
0.0269458
0.0281321
0.0292622
0.0303619
0.00289849
0.0087884
0.0158529
0.0196447
0.0218167
0.023679
0.025146
0.02636
0.0274324
0.0284089
0.029322
0.0301955
0.00186941
0.00188802
0.00188961
0.00188883
0.00187278
0.00183808
0.00178379
0.00170556
0.00159708
0.00145904
0.00126204
0.000611824
0.00947617
0.0109086
0.011771
0.0119741
0.011665
0.0109502
0.00982182
0.00830913
0.00641394
0.00390778
0.00186434
0.00103859
0.0172034
0.0186197
0.0193471
0.0194327
0.0190038
0.0179895
0.0163821
0.0141411
0.011243
0.00767692
0.00342328
0.00136485
0.0228656
0.0243299
0.0252238
0.0255557
0.0252987
0.0243811
0.0227194
0.0201655
0.016587
0.0118823
0.00588963
0.00166669
0.0269742
0.0285081
0.0295622
0.0301067
0.0300936
0.0294489
0.0280353
0.0256117
0.021732
0.0161862
0.00864944
0.00196212
0.0297462
0.0313227
0.0324987
0.0332516
0.0335546
0.0333308
0.0323867
0.0303615
0.0267068
0.0206784
0.0118558
0.00226826
0.0314694
0.0330109
0.0342144
0.0350912
0.0356541
0.035857
0.0355186
0.0342034
0.0311088
0.0250624
0.0152463
0.00258583
0.0323867
0.0337667
0.0348908
0.0358017
0.0365334
0.0370885
0.0373528
0.0369092
0.034762
0.0291042
0.0183603
0.00293918
0.0324743
0.0336848
0.0347304
0.0356386
0.0364606
0.037251
0.0379962
0.0384149
0.0375018
0.0327957
0.0211973
0.00332347
0.0319731
0.0330562
0.0340362
0.0349219
0.035775
0.0366751
0.0376873
0.0387534
0.0391243
0.0360917
0.0244043
0.00373109
0.0314007
0.0323716
0.0332762
0.0341003
0.0348808
0.0356947
0.0367503
0.0380551
0.0392632
0.0382414
0.0280998
0.0041796
0.0310308
0.0318279
0.0325908
0.0333379
0.034111
0.034836
0.0355786
0.0368117
0.038451
0.0392282
0.0320121
0.00469689
0.000276036
0.000585067
0.000610831
0.000607676
0.00059089
0.000560477
0.000590006
0.000864872
0.00139693
0.00160034
0.00168086
0.00173977
0.000448587
0.00116172
0.00161982
0.00160996
0.00110977
0.000699247
0.00136918
0.00170824
0.00252126
0.0036865
0.00519989
0.00684186
0.000584933
0.00209201
0.00268364
0.0023934
0.0021116
0.00202887
0.0028996
0.00437508
0.00642987
0.00898807
0.0114577
0.0136946
0.000734939
0.00309948
0.0030727
0.002678
0.00271679
0.00355281
0.00572161
0.00823941
0.0110706
0.014017
0.0166623
0.0189746
0.000851683
0.00367714
0.00367679
0.00348204
0.00414466
0.00624235
0.00909309
0.0119568
0.0149974
0.0179247
0.0205438
0.0228314
0.000954723
0.00442041
0.00483091
0.00495575
0.0064913
0.00917836
0.0120658
0.0150176
0.0179168
0.0207164
0.0232441
0.0254646
0.0010384
0.00505607
0.00597123
0.00689835
0.00910452
0.011894
0.0147199
0.0175211
0.0202609
0.0228215
0.0251409
0.0271996
0.00113025
0.00611434
0.00770299
0.00967687
0.012184
0.0148241
0.0174165
0.0199329
0.0223341
0.0245441
0.0265373
0.0283075
0.00123947
0.0074346
0.0104343
0.0131955
0.0157182
0.0180187
0.0201468
0.0221302
0.0239688
0.0256871
0.0272342
0.0286356
0.00139718
0.00898969
0.0130631
0.0159978
0.018338
0.020212
0.021838
0.0233025
0.0246624
0.0259645
0.0271835
0.0283274
0.00160228
0.00855879
0.0141174
0.0173134
0.0194645
0.0211683
0.0225735
0.0237847
0.024889
0.0259375
0.0269449
0.0279194
0.00281791
0.00830214
0.0149192
0.018422
0.0203135
0.0219465
0.023209
0.0242653
0.0252128
0.0260948
0.0269383
0.0277581
0.00177288
0.00179241
0.00179681
0.00179657
0.0017876
0.00175573
0.00170923
0.00163674
0.00153834
0.00140724
0.00121937
0.000589121
0.00851541
0.00991174
0.0107975
0.0110544
0.0107505
0.0101149
0.00908884
0.00772348
0.00597641
0.00366642
0.00177495
0.00100355
0.0156173
0.017006
0.0177567
0.0179062
0.0175329
0.0166279
0.0151679
0.0131199
0.0104627
0.00717363
0.00322603
0.00132143
0.0208939
0.0223264
0.0232359
0.023611
0.0234272
0.0226208
0.0211134
0.0187748
0.0154796
0.0111451
0.00555332
0.00161332
0.0247491
0.0262514
0.0273099
0.027892
0.0279481
0.027407
0.0261429
0.0239349
0.0203163
0.0151729
0.00814693
0.00190029
0.0273552
0.0288944
0.0300651
0.0308423
0.0311917
0.0310429
0.0302161
0.028377
0.0250196
0.0194079
0.0111969
0.00219717
0.0289834
0.0304768
0.03167
0.032564
0.0331653
0.0334312
0.0331909
0.0320326
0.0292013
0.0235852
0.0144342
0.00250557
0.0298543
0.0311816
0.0322911
0.0332098
0.0339702
0.0345744
0.0349155
0.0345972
0.0326773
0.0274586
0.0174697
0.00284756
0.0299075
0.0310704
0.0321063
0.0330237
0.0338673
0.0346944
0.0354967
0.0360092
0.0352788
0.0309826
0.0201993
0.0032243
0.0294171
0.0304647
0.031425
0.0323169
0.0331842
0.0341183
0.0351756
0.0363088
0.036835
0.0340878
0.0233207
0.00362661
0.0288962
0.0298407
0.0307419
0.0315877
0.0323822
0.0332075
0.0342949
0.0357095
0.0370146
0.0363621
0.0270441
0.00407683
0.028571
0.0293726
0.0301545
0.0309733
0.0317972
0.0325107
0.033294
0.0345235
0.0362352
0.0373212
0.0311044
0.0046138
0.000293803
0.000620168
0.000642294
0.000639314
0.000615273
0.00059192
0.000648719
0.00106522
0.00153504
0.00170581
0.00178002
0.00183916
0.000477628
0.00123017
0.00167718
0.00158674
0.00101295
0.000857986
0.00156975
0.00195637
0.003019
0.00422457
0.0059431
0.00773297
0.000624834
0.00224368
0.00271853
0.00233847
0.00208909
0.00227094
0.00349808
0.00515949
0.00751731
0.0102476
0.0128594
0.0152271
0.00078489
0.00321508
0.00310889
0.00276837
0.00302652
0.00441578
0.00681308
0.00951941
0.0126109
0.0157075
0.0184754
0.0208912
0.000906138
0.00391449
0.00399746
0.00393525
0.00505301
0.0075365
0.0104447
0.0135541
0.0167895
0.0198643
0.0226074
0.0249937
0.00101188
0.00481608
0.0054465
0.00581321
0.00767829
0.0104985
0.013557
0.0167038
0.0198502
0.0228071
0.0254633
0.0277857
0.00109155
0.0054567
0.00666548
0.00783511
0.0102426
0.013189
0.0161949
0.0192351
0.0221816
0.024928
0.027407
0.0295952
0.00117744
0.0064746
0.00828139
0.0104012
0.0131316
0.0160041
0.0188505
0.0216311
0.024248
0.0266528
0.0288213
0.0307367
0.00128223
0.00762693
0.0108653
0.0138297
0.0166257
0.0192008
0.0215999
0.0238401
0.0258994
0.0277839
0.0295153
0.0310828
0.00143094
0.00908722
0.0135843
0.0168465
0.019448
0.0215747
0.023427
0.0251062
0.0266471
0.0280882
0.0294639
0.0307665
0.00163975
0.00886596
0.014884
0.0183576
0.0207332
0.0226622
0.0242768
0.0256723
0.0269457
0.0281319
0.029262
0.0303617
0.00289849
0.00878841
0.0158529
0.0196447
0.0218166
0.023679
0.025146
0.0263599
0.0274323
0.0284088
0.0293219
0.0301954
0.00186941
0.00188801
0.00188961
0.00188882
0.00187278
0.00183808
0.00178379
0.00170555
0.00159707
0.00145903
0.00126204
0.000611824
0.00947609
0.0109085
0.0117709
0.011974
0.011665
0.0109501
0.00982177
0.00830909
0.00641391
0.00390777
0.00186434
0.00103859
0.0172032
0.0186196
0.019347
0.0194326
0.0190037
0.0179894
0.016382
0.014141
0.011243
0.00767689
0.00342327
0.00136485
0.0228655
0.0243297
0.0252236
0.0255555
0.0252985
0.024381
0.0227193
0.0201654
0.016587
0.0118822
0.00588961
0.00166669
0.026974
0.0285079
0.029562
0.0301066
0.0300934
0.0294488
0.0280351
0.0256116
0.0217319
0.0161861
0.00864941
0.00196212
0.029746
0.0313225
0.0324985
0.0332514
0.0335545
0.0333307
0.0323866
0.0303613
0.0267067
0.0206783
0.0118558
0.00226826
0.0314692
0.0330107
0.0342142
0.035091
0.0356539
0.0358567
0.0355185
0.0342032
0.0311086
0.0250623
0.0152462
0.00258583
0.0323864
0.0337665
0.0348906
0.0358015
0.0365332
0.0370883
0.0373526
0.036909
0.0347619
0.0291041
0.0183602
0.00293918
0.0324741
0.0336845
0.0347302
0.0356384
0.0364604
0.0372508
0.037996
0.0384147
0.0375016
0.0327956
0.0211972
0.00332346
0.0319729
0.033056
0.034036
0.0349217
0.0357748
0.0366749
0.0376871
0.0387532
0.0391242
0.0360916
0.0244043
0.00373108
0.0314005
0.0323714
0.033276
0.0341001
0.0348806
0.0356945
0.0367501
0.0380549
0.039263
0.0382413
0.0280997
0.0041796
0.0310306
0.0318278
0.0325907
0.0333377
0.0341108
0.0348358
0.0355784
0.0368115
0.0384509
0.039228
0.032012
0.00469688
0.000276036
0.000585067
0.000610832
0.000607676
0.00059089
0.000560477
0.000590006
0.000864872
0.00139693
0.00160034
0.00168086
0.00173978
0.000448587
0.00116172
0.00161981
0.00160996
0.00110977
0.000699244
0.00136918
0.00170824
0.00252126
0.0036865
0.00519989
0.00684186
0.000584934
0.00209201
0.00268364
0.0023934
0.0021116
0.00202887
0.0028996
0.00437508
0.00642987
0.00898807
0.0114577
0.0136946
0.000734939
0.00309947
0.0030727
0.002678
0.00271678
0.0035528
0.0057216
0.00823941
0.0110706
0.014017
0.0166623
0.0189746
0.000851683
0.00367714
0.00367679
0.00348204
0.00414466
0.00624235
0.00909309
0.0119568
0.0149974
0.0179247
0.0205438
0.0228315
0.000954723
0.00442041
0.00483092
0.00495575
0.0064913
0.00917835
0.0120658
0.0150176
0.0179168
0.0207164
0.0232441
0.0254647
0.0010384
0.00505607
0.00597123
0.00689835
0.00910452
0.011894
0.0147199
0.0175211
0.0202609
0.0228215
0.0251409
0.0271996
0.00113025
0.00611435
0.007703
0.00967688
0.012184
0.0148241
0.0174165
0.0199329
0.0223341
0.0245441
0.0265373
0.0283075
0.00123947
0.00743461
0.0104344
0.0131955
0.0157182
0.0180187
0.0201468
0.0221303
0.0239688
0.0256871
0.0272343
0.0286356
0.00139718
0.0089897
0.0130631
0.0159978
0.018338
0.020212
0.021838
0.0233026
0.0246624
0.0259646
0.0271835
0.0283275
0.00160228
0.00855879
0.0141174
0.0173134
0.0194645
0.0211683
0.0225735
0.0237847
0.024889
0.0259375
0.0269449
0.0279194
0.0028179
0.00830214
0.0149192
0.018422
0.0203135
0.0219465
0.023209
0.0242653
0.0252128
0.0260948
0.0269383
0.0277581
0.00177288
0.00179241
0.00179681
0.00179657
0.0017876
0.00175573
0.00170923
0.00163674
0.00153834
0.00140724
0.00121937
0.000589121
0.00851542
0.00991175
0.0107975
0.0110544
0.0107505
0.0101149
0.00908885
0.00772349
0.00597642
0.00366642
0.00177495
0.00100355
0.0156173
0.017006
0.0177567
0.0179062
0.0175329
0.0166279
0.0151679
0.01312
0.0104627
0.00717364
0.00322603
0.00132143
0.020894
0.0223265
0.0232359
0.023611
0.0234272
0.0226208
0.0211134
0.0187748
0.0154796
0.0111451
0.00555333
0.00161333
0.0247491
0.0262514
0.0273099
0.027892
0.0279481
0.027407
0.026143
0.0239349
0.0203163
0.0151729
0.00814694
0.00190029
0.0273552
0.0288944
0.0300652
0.0308423
0.0311918
0.0310429
0.0302161
0.028377
0.0250197
0.0194079
0.0111969
0.00219718
0.0289834
0.0304768
0.0316701
0.0325641
0.0331653
0.0334312
0.0331909
0.0320326
0.0292013
0.0235852
0.0144342
0.00250557
0.0298544
0.0311816
0.0322911
0.0332098
0.0339702
0.0345745
0.0349156
0.0345973
0.0326773
0.0274587
0.0174697
0.00284756
0.0299075
0.0310705
0.0321063
0.0330237
0.0338673
0.0346945
0.0354968
0.0360092
0.0352789
0.0309826
0.0201993
0.0032243
0.0294171
0.0304647
0.031425
0.0323169
0.0331842
0.0341184
0.0351756
0.0363089
0.036835
0.0340879
0.0233208
0.00362662
0.0288962
0.0298408
0.0307419
0.0315877
0.0323822
0.0332076
0.0342949
0.0357096
0.0370146
0.0363622
0.0270442
0.00407683
0.028571
0.0293726
0.0301546
0.0309733
0.0317973
0.0325107
0.033294
0.0345235
0.0362352
0.0373213
0.0311044
0.0046138
0.01766
0.0185045
0.0201119
0.0219115
0.0236092
0.0251521
0.0263474
0.0273386
0.0282233
0.0289968
0.0296956
0.0303453
0.027687
0.0258892
0.0255152
0.0258523
0.0265779
0.0272983
0.0278228
0.0285031
0.0292139
0.0297398
0.0301831
0.0305896
0.0340444
0.0322506
0.0309964
0.0302364
0.0299462
0.029896
0.0299601
0.0300685
0.030182
0.0302951
0.0304066
0.0305792
0.0361828
0.0349192
0.0337378
0.0327409
0.0319714
0.0313763
0.0309077
0.0306554
0.0304316
0.0302197
0.030041
0.0298398
0.0309545
0.0315339
0.0320905
0.0326372
0.0332278
0.0339714
0.034734
0.0355742
0.0370324
0.0390099
0.0398672
0.0185948
0.0309502
0.0312931
0.0316329
0.0319914
0.0323904
0.0328672
0.0335808
0.0343001
0.0353786
0.0373655
0.0414841
0.0305717
0.0306644
0.0307651
0.0308947
0.0310986
0.0313884
0.0317799
0.0323422
0.0331302
0.0340905
0.0355717
0.039383
0.0359092
0.0296905
0.0296579
0.0297628
0.0300913
0.0305361
0.0310935
0.0317793
0.0327128
0.0337569
0.0348648
0.0373084
0.037077
0.016635
0.0171567
0.0186174
0.0202117
0.0216888
0.0230023
0.0240308
0.0249391
0.025776
0.0265287
0.0272301
0.0279024
0.0264137
0.024319
0.0236438
0.0237296
0.0241793
0.0246876
0.0252187
0.025905
0.026614
0.0271772
0.0277068
0.0282005
0.0329007
0.0306865
0.028951
0.0279525
0.027439
0.0272758
0.0273171
0.0274734
0.0277027
0.0278918
0.0280962
0.0283323
0.0352241
0.0334703
0.0319567
0.0306631
0.0296874
0.0290546
0.0286258
0.0283088
0.0281644
0.0280685
0.027995
0.0279416
0.0285581
0.0291988
0.029818
0.0304341
0.0310822
0.031847
0.0324908
0.0334477
0.0350203
0.0372524
0.0392235
0.0190323
0.0286794
0.0291379
0.0295654
0.0299826
0.0304083
0.0309841
0.0316109
0.032274
0.0335412
0.0357634
0.0406443
0.0312994
0.0286175
0.0288651
0.0290497
0.0292287
0.0294485
0.0298201
0.0304067
0.0310385
0.0322684
0.0338919
0.0381224
0.0363946
0.0278948
0.0278253
0.0278039
0.0278537
0.0280282
0.0285087
0.0291654
0.0299657
0.0313402
0.0327317
0.03589
0.0368584
0.01766
0.0185044
0.0201119
0.0219115
0.0236092
0.0251521
0.0263474
0.0273386
0.0282232
0.0289967
0.0296955
0.0303452
0.0276869
0.0258891
0.0255152
0.0258523
0.0265779
0.0272983
0.0278228
0.0285031
0.0292138
0.0297397
0.030183
0.0305895
0.0340443
0.0322505
0.0309964
0.0302364
0.0299462
0.0298959
0.02996
0.0300684
0.030182
0.0302951
0.0304066
0.0305792
0.0361826
0.0349191
0.0337377
0.0327408
0.0319713
0.0313762
0.0309077
0.0306553
0.0304316
0.0302197
0.030041
0.0298398
0.0309543
0.0315338
0.0320903
0.032637
0.0332276
0.0339712
0.0347338
0.035574
0.0370322
0.0390097
0.0398671
0.0185948
0.0309502
0.031293
0.0316328
0.0319913
0.0323903
0.0328671
0.0335807
0.0342999
0.0353785
0.0373654
0.041484
0.0305716
0.0306643
0.0307651
0.0308946
0.0310985
0.0313883
0.0317798
0.0323421
0.0331301
0.0340904
0.0355716
0.0393828
0.0359091
0.0296904
0.0296579
0.0297627
0.0300913
0.030536
0.0310935
0.0317792
0.0327127
0.0337568
0.0348647
0.0373083
0.0370769
0.016635
0.0171566
0.0186174
0.0202117
0.0216888
0.0230023
0.0240308
0.0249391
0.025776
0.0265287
0.0272301
0.0279024
0.0264137
0.024319
0.0236437
0.0237296
0.0241792
0.0246876
0.0252187
0.025905
0.0266139
0.0271772
0.0277068
0.0282005
0.0329006
0.0306864
0.028951
0.0279525
0.0274389
0.0272758
0.0273171
0.0274734
0.0277027
0.0278918
0.0280962
0.0283323
0.035224
0.0334703
0.0319566
0.0306631
0.0296874
0.0290546
0.0286258
0.0283088
0.0281644
0.0280685
0.027995
0.0279416
0.0285581
0.0291988
0.029818
0.0304342
0.0310823
0.031847
0.0324909
0.0334477
0.0350204
0.0372524
0.0392236
0.0190323
0.0286794
0.0291379
0.0295654
0.0299827
0.0304084
0.0309842
0.0316109
0.0322741
0.0335413
0.0357635
0.0406444
0.0312994
0.0286175
0.0288652
0.0290498
0.0292287
0.0294486
0.0298201
0.0304068
0.0310386
0.0322685
0.033892
0.0381225
0.0363947
0.0278948
0.0278254
0.027804
0.0278538
0.0280283
0.0285088
0.0291656
0.0299658
0.0313404
0.0327319
0.0358902
0.0368586
0.0347748
0.0336976
0.0326381
0.031723
0.0309846
0.03038
0.0298681
0.0294862
0.0291023
0.0286996
0.0283194
0.0280696
0.032916
0.0319855
0.0310255
0.0301638
0.0294261
0.0287897
0.0282216
0.0277047
0.0271365
0.0264731
0.0257435
0.0252131
0.0309484
0.0301576
0.0292891
0.0284716
0.0277348
0.0270632
0.0264226
0.0257652
0.024976
0.0239174
0.0224403
0.0208354
0.0290293
0.0283657
0.0275868
0.0268114
0.0260757
0.0253692
0.0246532
0.0238554
0.0228148
0.0211916
0.0182288
0.0135813
0.0282248
0.0288188
0.0295527
0.0304222
0.0313608
0.0322383
0.0331505
0.0340293
0.034843
0.0356171
0.0360355
0.0355713
0.0256735
0.0272435
0.0287598
0.0301691
0.0314897
0.0326035
0.0335568
0.0343216
0.0348769
0.0350929
0.0350427
0.0342877
0.0213573
0.0249226
0.0275761
0.0295384
0.0311026
0.0323323
0.0332803
0.0339352
0.0342211
0.0342177
0.0339237
0.0328859
0.0136044
0.02165
0.0260207
0.0285732
0.030328
0.0316138
0.0325419
0.0330493
0.0332069
0.03311
0.0326147
0.0314563
0.0338789
0.0322458
0.0308681
0.0297226
0.0288502
0.0282148
0.027703
0.0272628
0.0269235
0.0266142
0.0263509
0.0261752
0.0325924
0.031006
0.0296361
0.0284769
0.0275297
0.0267487
0.0260555
0.0254072
0.0247962
0.0241786
0.0235899
0.0231772
0.031282
0.029703
0.0282854
0.027043
0.0259655
0.0250114
0.0241196
0.0232417
0.0223323
0.0212982
0.0200762
0.0189607
0.0299229
0.0283504
0.0268816
0.0255487
0.0243445
0.0232345
0.0221648
0.0210713
0.0198508
0.0182585
0.0157342
0.0120808
0.0261201
0.0261401
0.0262286
0.0264758
0.026968
0.0277785
0.0288276
0.0300691
0.0315963
0.0331959
0.0348836
0.0353496
0.0232127
0.0236089
0.0239725
0.0244583
0.0252001
0.0262386
0.0275046
0.0289283
0.0304734
0.0319589
0.033076
0.0333832
0.0190422
0.0206097
0.0215926
0.0224145
0.0233789
0.0245616
0.0259185
0.0273798
0.0288644
0.0301893
0.0310516
0.0313031
0.0120758
0.0170156
0.0192311
0.0205148
0.021684
0.0229444
0.0243094
0.0257329
0.0271285
0.0283029
0.0290467
0.0292878
0.0347747
0.0336975
0.032638
0.0317229
0.0309845
0.03038
0.029868
0.0294861
0.0291023
0.0286996
0.0283193
0.0280696
0.0329158
0.0319854
0.0310254
0.0301637
0.029426
0.0287896
0.0282215
0.0277046
0.0271364
0.0264731
0.0257434
0.0252131
0.0309482
0.0301575
0.029289
0.0284715
0.0277347
0.0270632
0.0264225
0.0257651
0.0249759
0.0239173
0.0224403
0.0208354
0.0290291
0.0283656
0.0275866
0.0268112
0.0260755
0.0253691
0.0246531
0.0238553
0.0228147
0.0211916
0.0182288
0.0135813
0.0282248
0.0288188
0.0295526
0.0304221
0.0313607
0.0322382
0.0331504
0.0340292
0.0348429
0.0356169
0.0360354
0.0355712
0.0256734
0.0272434
0.0287597
0.030169
0.0314896
0.0326033
0.0335567
0.0343215
0.0348768
0.0350928
0.0350426
0.0342877
0.0213573
0.0249225
0.0275761
0.0295383
0.0311024
0.0323322
0.0332802
0.0339351
0.034221
0.0342176
0.0339236
0.0328858
0.0136044
0.0216499
0.0260206
0.0285731
0.0303279
0.0316137
0.0325418
0.0330492
0.0332068
0.0331099
0.0326146
0.0314562
0.0338788
0.0322458
0.0308681
0.0297226
0.0288502
0.0282148
0.027703
0.0272629
0.0269236
0.0266142
0.026351
0.0261753
0.0325924
0.031006
0.0296361
0.028477
0.0275297
0.0267488
0.0260555
0.0254072
0.0247963
0.0241786
0.0235899
0.0231773
0.031282
0.029703
0.0282854
0.027043
0.0259655
0.0250115
0.0241196
0.0232418
0.0223324
0.0212983
0.0200763
0.0189607
0.0299229
0.0283504
0.0268816
0.0255487
0.0243446
0.0232346
0.022165
0.0210714
0.0198509
0.0182586
0.0157342
0.0120809
0.0261202
0.0261402
0.0262288
0.026476
0.0269682
0.0277787
0.0288278
0.0300693
0.0315964
0.033196
0.0348837
0.0353498
0.0232128
0.023609
0.0239727
0.0244586
0.0252004
0.0262389
0.0275049
0.0289286
0.0304736
0.0319591
0.0330762
0.0333834
0.0190423
0.0206099
0.021593
0.0224149
0.0233793
0.024562
0.0259188
0.0273801
0.0288646
0.0301895
0.0310518
0.0313033
0.0120759
0.0170158
0.0192315
0.0205153
0.0216845
0.0229449
0.0243099
0.0257332
0.0271287
0.0283031
0.029047
0.029288
0.027219
0.0266668
0.0259696
0.0252355
0.0245038
0.0237669
0.0229815
0.0220553
0.0207797
0.0185368
0.0134266
0.00297313
0.0255301
0.025071
0.024447
0.0237534
0.0230295
0.0222693
0.0214262
0.0203958
0.0189434
0.0164722
0.0115364
0.00206532
0.0239521
0.0235694
0.0230099
0.0223556
0.0216439
0.0208691
0.0199838
0.0188808
0.017333
0.0148387
0.0103558
0.00168756
0.022461
0.0221409
0.0216381
0.0210225
0.0203277
0.0195481
0.0186374
0.0174937
0.0159149
0.0135031
0.00947724
0.0015039
0.0210192
0.0207511
0.0202991
0.0197222
0.01905
0.0182765
0.0173582
0.0162031
0.0146402
0.0123594
0.00872781
0.00137279
0.0195676
0.0193446
0.0189399
0.0184039
0.0177618
0.017007
0.0160998
0.0149602
0.0134481
0.0113205
0.0080285
0.00125989
0.0180104
0.0178297
0.0174722
0.0169825
0.0163812
0.0156608
0.0147859
0.0136891
0.012258
0.0103007
0.00732572
0.00115564
0.0161907
0.0160529
0.015747
0.0153138
0.0147694
0.0141051
0.0132897
0.0122685
0.0109536
0.00919607
0.00656209
0.00105391
0.0138528
0.0137611
0.013516
0.0131569
0.0126943
0.0121177
0.0114007
0.0105022
0.00935667
0.00785901
0.00565197
0.000947571
0.0105956
0.0105524
0.0103822
0.0101237
0.00978055
0.00933949
0.00878067
0.00807966
0.00718417
0.00605176
0.00444366
0.000825548
0.00588583
0.00588327
0.00580085
0.00567554
0.00550174
0.0052644
0.00495407
0.00456728
0.00404664
0.00342492
0.00262571
0.000671253
0.000629733
0.000625849
0.000615258
0.000600388
0.000581016
0.00055708
0.00052787
0.000490725
0.000443527
0.00038373
0.000305812
0.000145297
0.00308356
0.0176411
0.0242745
0.0273771
0.0292828
0.0305939
0.0314678
0.0318857
0.0320118
0.0318252
0.0311664
0.0300045
0.00241973
0.0158317
0.0226884
0.0260559
0.0280601
0.029386
0.0301894
0.0305695
0.0306587
0.0303997
0.0296713
0.0285412
0.00214182
0.014601
0.0212208
0.0246691
0.026719
0.0280357
0.0287984
0.0291519
0.0292002
0.0288867
0.0281489
0.0270731
0.00198034
0.0135809
0.0198312
0.0232422
0.0252927
0.0265847
0.0273164
0.0276554
0.0276628
0.0273118
0.0265999
0.0255931
0.00185553
0.0126335
0.0184725
0.0217719
0.0237856
0.0250399
0.0257477
0.0260628
0.0260352
0.0256725
0.0250029
0.0240713
0.00174335
0.0116867
0.0170933
0.0202272
0.0221674
0.0233705
0.0240489
0.0243337
0.0242771
0.023918
0.0232987
0.0224423
0.00163252
0.010687
0.0156276
0.018541
0.0203646
0.0214955
0.0221274
0.0223761
0.0222953
0.0219462
0.0213732
0.0205962
0.0015159
0.00956702
0.0139751
0.0165887
0.0182355
0.0192551
0.0198157
0.0200183
0.0199157
0.019578
0.0190454
0.0183604
0.00139097
0.00821726
0.0119522
0.0141439
0.0155239
0.0163731
0.0168268
0.0169698
0.0168509
0.0165285
0.0160431
0.0154809
0.00124407
0.00647559
0.00923371
0.0108109
0.0117995
0.0124016
0.0127077
0.0127861
0.0126652
0.0123782
0.0119912
0.0115819
0.00105741
0.00393458
0.00525543
0.00600579
0.00648604
0.00677757
0.00691207
0.006947
0.0068584
0.0066955
0.00647988
0.00624605
0.000249951
0.000434297
0.00055408
0.000628289
0.00067877
0.000712996
0.000733134
0.000741287
0.00073783
0.000727417
0.00071195
0.000692436
0.0285371
0.0269893
0.0254943
0.0240974
0.0227987
0.0215705
0.0203611
0.0190881
0.0175887
0.0154178
0.0110318
0.00249321
0.0271479
0.025651
0.0241668
0.0227464
0.0213972
0.020097
0.0187951
0.0173973
0.0157148
0.0132915
0.00893846
0.00152178
0.025765
0.024344
0.0229069
0.0215047
0.0201497
0.0188242
0.0174793
0.0160186
0.0142572
0.0118038
0.00779873
0.00114724
0.0243779
0.0230509
0.021689
0.0203396
0.019017
0.0177074
0.0163653
0.0148998
0.0131471
0.0107991
0.00723763
0.00100588
0.0229501
0.0217277
0.0204586
0.0191859
0.0179246
0.0166632
0.0153615
0.0139381
0.0122558
0.010077
0.00692794
0.000944157
0.0214178
0.0203013
0.0191335
0.0179529
0.0167732
0.0155851
0.0143531
0.0130063
0.0114322
0.00944089
0.00663012
0.000901238
0.0196758
0.0186618
0.0176007
0.0165245
0.0154441
0.0143509
0.0132138
0.0119714
0.0105307
0.00873054
0.00624747
0.000869004
0.0175599
0.0166505
0.0157069
0.0147525
0.0137935
0.0128208
0.0118067
0.0106978
0.00941811
0.00782117
0.00570763
0.000830672
0.014823
0.0140426
0.013243
0.0124423
0.011639
0.0108234
0.00997092
0.00903565
0.00796124
0.00660195
0.00492409
0.000781888
0.0110852
0.0105046
0.00989697
0.00930232
0.00870653
0.00809995
0.0074629
0.00675662
0.00595465
0.00488862
0.00372119
0.000712328
0.00598117
0.00570018
0.00539729
0.00508541
0.00476894
0.00444514
0.00410351
0.00371294
0.00329423
0.00266301
0.00208161
0.000611482
0.000668783
0.000642043
0.000612746
0.000582174
0.000550947
0.000518765
0.000485421
0.000449191
0.000410075
0.000357652
0.000305502
0.000189425
0.00268853
0.0129025
0.0169804
0.0187963
0.0201476
0.0214379
0.0227642
0.0241147
0.025411
0.0264712
0.0271504
0.0273989
0.00194564
0.0108924
0.0151642
0.0172936
0.0187562
0.0200415
0.0213071
0.022574
0.0237756
0.0247473
0.0253859
0.0256467
0.00158659
0.00956375
0.0137085
0.0159627
0.0174748
0.0187314
0.0199299
0.0211163
0.022235
0.0231366
0.0237459
0.0240184
0.0013723
0.00856276
0.0124928
0.0147506
0.0162578
0.0174692
0.0186031
0.0197204
0.0207716
0.0216182
0.0222049
0.0224873
0.00121919
0.00773414
0.0114128
0.0135965
0.0150526
0.0162047
0.0172794
0.0183423
0.0193444
0.0201505
0.0207209
0.0210128
0.00110123
0.00697819
0.0103913
0.0124384
0.0138
0.014876
0.0158936
0.016916
0.0178877
0.0186682
0.0192287
0.0195324
0.00100033
0.00625662
0.00936191
0.0112106
0.0124317
0.013407
0.0143605
0.0153488
0.0163047
0.017072
0.0176274
0.0179475
0.000906518
0.0055329
0.00825271
0.00983406
0.0108639
0.011704
0.0125707
0.0135145
0.0144567
0.0152122
0.0157594
0.0160999
0.000812308
0.00474283
0.00696104
0.00819792
0.0089843
0.00964589
0.0103832
0.011244
0.0121449
0.0128664
0.0133819
0.0137364
0.000707858
0.00375483
0.0053069
0.00610287
0.00659186
0.00702359
0.0075582
0.00825157
0.00904559
0.00970066
0.0101385
0.010466
0.000577528
0.00228185
0.00301157
0.00332788
0.0035098
0.00368669
0.00396165
0.00439107
0.00488896
0.0053071
0.00559897
0.00579367
0.000124943
0.000264715
0.000326676
0.000362177
0.000389783
0.000421818
0.000462998
0.000510955
0.00055331
0.000586056
0.000610341
0.000625028
0.0272188
0.0266666
0.0259694
0.0252354
0.0245037
0.0237668
0.0229814
0.0220552
0.0207796
0.0185367
0.0134265
0.00297313
0.0255298
0.0250708
0.0244468
0.0237532
0.0230293
0.0222691
0.0214261
0.0203957
0.0189433
0.0164721
0.0115364
0.00206531
0.0239518
0.0235692
0.0230097
0.0223554
0.0216437
0.020869
0.0199836
0.0188806
0.0173328
0.0148385
0.0103557
0.00168755
0.0224607
0.0221406
0.0216378
0.0210222
0.0203274
0.0195478
0.0186372
0.0174934
0.0159147
0.0135029
0.0094771
0.00150388
0.0210189
0.0207508
0.0202988
0.0197219
0.0190497
0.0182762
0.0173579
0.0162028
0.0146399
0.0123592
0.00872763
0.00137275
0.0195672
0.0193443
0.0189396
0.0184037
0.0177615
0.0170067
0.0160995
0.0149599
0.0134478
0.0113203
0.00802831
0.00125984
0.0180101
0.0178294
0.0174719
0.0169822
0.0163809
0.0156605
0.0147857
0.0136888
0.0122577
0.0103005
0.00732554
0.00115559
0.0161904
0.0160527
0.0157467
0.0153136
0.0147692
0.0141049
0.0132895
0.0122682
0.0109533
0.00919585
0.00656198
0.00105384
0.0138526
0.0137609
0.0135158
0.0131567
0.0126942
0.0121175
0.0114005
0.010502
0.00935651
0.00785889
0.00565196
0.00094748
0.0105954
0.0105523
0.0103821
0.0101236
0.00978046
0.00933941
0.00878059
0.0080796
0.00718413
0.00605176
0.00444375
0.000825436
0.00588575
0.00588321
0.00580079
0.00567548
0.00550169
0.00526436
0.00495403
0.00456725
0.00404663
0.00342493
0.00262579
0.000671113
0.000629716
0.000625834
0.000615243
0.000600373
0.000581002
0.000557066
0.000527856
0.000490709
0.000443508
0.000383708
0.000305786
0.000145239
0.00308355
0.017641
0.0242744
0.027377
0.0292827
0.0305938
0.0314677
0.0318856
0.0320117
0.0318251
0.0311663
0.0300045
0.00241973
0.0158317
0.0226883
0.0260557
0.0280599
0.0293858
0.0301893
0.0305694
0.0306586
0.0303996
0.0296712
0.0285411
0.00214181
0.0146009
0.0212207
0.024669
0.0267189
0.0280355
0.0287982
0.0291518
0.0292001
0.0288866
0.0281489
0.027073
0.00198034
0.0135808
0.0198311
0.0232421
0.0252925
0.0265846
0.0273163
0.0276553
0.0276627
0.0273117
0.0265999
0.0255931
0.00185552
0.0126335
0.0184724
0.0217718
0.0237855
0.0250397
0.0257475
0.0260627
0.0260351
0.0256724
0.0250028
0.0240713
0.00174334
0.0116867
0.0170932
0.0202271
0.0221673
0.0233704
0.0240488
0.0243336
0.024277
0.023918
0.0232987
0.0224423
0.00163251
0.0106869
0.0156275
0.0185409
0.0203644
0.0214954
0.0221273
0.022376
0.0222952
0.0219461
0.0213731
0.0205962
0.00151588
0.00956698
0.013975
0.0165886
0.0182354
0.0192551
0.0198156
0.0200182
0.0199156
0.019578
0.0190453
0.0183603
0.00139096
0.00821724
0.0119521
0.0141439
0.0155238
0.0163731
0.0168268
0.0169698
0.0168508
0.0165284
0.0160431
0.0154809
0.00124405
0.00647559
0.00923369
0.0108108
0.0117995
0.0124016
0.0127077
0.0127861
0.0126652
0.0123781
0.0119912
0.0115819
0.0010574
0.00393458
0.00525543
0.00600578
0.00648602
0.00677756
0.00691206
0.00694699
0.00685839
0.0066955
0.00647988
0.00624605
0.000249946
0.000434292
0.000554074
0.000628284
0.000678765
0.000712991
0.000733129
0.000741283
0.000737826
0.000727414
0.000711947
0.000692434
0.0285371
0.0269893
0.0254944
0.0240974
0.0227988
0.0215707
0.0203613
0.0190883
0.0175889
0.015418
0.011032
0.00249323
0.0271479
0.0256511
0.0241669
0.0227465
0.0213973
0.0200972
0.0187953
0.0173976
0.0157151
0.0132918
0.00893869
0.00152184
0.025765
0.0243441
0.022907
0.0215048
0.0201498
0.0188244
0.0174796
0.016019
0.0142576
0.0118043
0.00779907
0.00114734
0.0243779
0.0230509
0.0216891
0.0203397
0.0190172
0.0177076
0.0163656
0.0149002
0.0131476
0.0107996
0.00723801
0.00100602
0.0229501
0.0217278
0.0204587
0.0191861
0.0179248
0.0166635
0.0153619
0.0139385
0.0122564
0.0100775
0.00692824
0.00094431
0.0214178
0.0203014
0.0191336
0.017953
0.0167734
0.0155853
0.0143534
0.0130068
0.0114327
0.00944138
0.00663029