/*--------------------------------*- C++ -*----------------------------------*\
| =========                 |                                                 |
| \\      /  F ield         | OpenFOAM: The Open Source CFD Toolbox           |
|  \\    /   O peration     | Version:  2212                                  |
|   \\  /    A nd           | Website:  www.openfoam.com                      |
|    \\/     M anipulation  |                                                 |
\*---------------------------------------------------------------------------*/
FoamFile
{
    version     2.0;
    format      ascii;
    arch        "LSB;label=32;scalar=64";
    class       volScalarField;
    location    "0.04";
    object      p;
}
// * * * * * * * * * * * * * * * * * * * * * * * * * * * * * * * * * * * * * //

dimensions      [1 -1 -2 0 0 0 0];

internalField   nonuniform List<scalar> 
3072
(
97814.3
97802.6
97794.2
97786.1
97784.3
97783.4
97785.5
97784.8
97800.6
97827.9
97823.2
97784.8
97905.3
97872.6
97862.6
97853.4
97855.2
97859.9
97878.6
97907.8
97961.2
98047.5
98089.2
98103.8
97964.9
97916.2
97905.9
97900.9
97914.9
97940.4
97982.2
98035.6
98086.7
98138
98174.6
98201.2
98066.4
98011.6
98003.3
98005.6
98035.1
98084.3
98145.2
98202.6
98253.2
98295.8
98326.7
98351.5
98174.6
98129.9
98127.4
98142.6
98186.2
98246.4
98310.7
98366.6
98414
98451.1
98478.3
98499.1
98306.5
98271.8
98278.5
98305.9
98358
98419.7
98478.2
98526.6
98565.3
98595.5
98618.2
98635.4
98434.4
98421.3
98437.2
98475.9
98531.7
98589.7
98639.8
98678.9
98709.7
98733.2
98750.8
98763.9
98568.9
98575.5
98599.7
98644.9
98698.3
98748.5
98789.3
98820.3
98843.8
98861.4
98874.3
98883.6
98698.8
98733.5
98761
98808.2
98854.4
98895.2
98926.8
98950.1
98967.2
98979.5
98988.3
98994.2
98829.2
98883.8
98916.6
98963.7
99001.7
99032.2
99054.3
99069.9
99080.8
99088.3
99093.4
99096.4
98969.4
99046.7
99072.1
99110.7
99138.5
99157.8
99170.6
99178.8
99184.1
99187.6
99189.6
99190.2
99083.1
99203.1
99219.1
99240.3
99255.1
99264.2
99269.5
99272.4
99274.3
99275.6
99276.1
99275.3
97752.2
97736.2
97739.6
97762.2
97801
97853.4
97915.6
97980.6
98038.4
98080.2
98106.4
98082.9
98113.1
98112.4
98114.4
98118.1
98127.6
98141.9
98160.5
98180.2
98196
98215.2
98226.8
98142.9
98217.2
98226.5
98234.8
98243.7
98255.1
98266.5
98276.9
98282.6
98280.5
98279.3
98267.3
98141.8
98369.3
98382.3
98392.4
98399.9
98405
98407.2
98406
98397.9
98379.7
98357.3
98327.4
98166.5
98513.9
98524.1
98531
98535
98536
98533.6
98526.8
98513.5
98489.6
98456.2
98415.8
98239.4
98647.5
98655.8
98660.8
98662.8
98662
98657.9
98649.3
98635
98611.6
98576.3
98532.9
98359.5
98773
98778.9
98782.1
98782.9
98781.4
98777.4
98770.4
98759
98741
98712.7
98678.6
98525.3
98889.8
98893.5
98895.2
98895.2
98893.9
98891.4
98887.6
98882
98873.6
98859.1
98845.8
98733
98997.9
98999.7
99000
98999.4
98998.5
98997.9
98998.1
98999.6
99003.1
99007.7
99025.4
98977.3
99097.7
99097.5
99096.6
99095.1
99094.2
99095.1
99098.9
99107.2
99122
99146.5
99204.6
99242.7
99189.6
99187.2
99184.6
99181.9
99180.2
99181.4
99187.3
99200.3
99223.2
99263.1
99364.5
99499.5
99273.4
99268.8
99264
99259.1
99255.6
99255.4
99260.8
99274.8
99299.6
99345.5
99461.8
99722.6
97814.3
97802.6
97794.2
97786.1
97784.3
97783.4
97785.5
97784.8
97800.6
97827.9
97823.2
97784.8
97905.3
97872.6
97862.6
97853.4
97855.2
97859.9
97878.6
97907.8
97961.2
98047.5
98089.2
98103.8
97964.9
97916.2
97905.9
97900.9
97914.9
97940.4
97982.2
98035.6
98086.7
98138
98174.6
98201.2
98066.4
98011.6
98003.3
98005.6
98035.1
98084.3
98145.2
98202.6
98253.2
98295.8
98326.7
98351.5
98174.6
98129.9
98127.4
98142.6
98186.2
98246.4
98310.7
98366.6
98414
98451.1
98478.3
98499.1
98306.5
98271.8
98278.5
98305.9
98358
98419.7
98478.2
98526.6
98565.3
98595.5
98618.2
98635.4
98434.4
98421.3
98437.2
98475.9
98531.7
98589.7
98639.8
98678.9
98709.7
98733.2
98750.8
98763.9
98568.9
98575.5
98599.7
98644.9
98698.3
98748.5
98789.3
98820.3
98843.8
98861.4
98874.3
98883.6
98698.8
98733.5
98761
98808.2
98854.4
98895.2
98926.8
98950.1
98967.2
98979.5
98988.3
98994.2
98829.2
98883.8
98916.6
98963.7
99001.7
99032.2
99054.3
99069.9
99080.8
99088.3
99093.4
99096.4
98969.4
99046.7
99072.1
99110.7
99138.5
99157.8
99170.6
99178.8
99184.1
99187.6
99189.6
99190.2
99083.1
99203.1
99219.1
99240.3
99255.1
99264.2
99269.5
99272.4
99274.3
99275.6
99276.1
99275.3
97752.2
97736.2
97739.6
97762.2
97801
97853.4
97915.6
97980.6
98038.4
98080.2
98106.4
98082.9
98113.1
98112.4
98114.4
98118.1
98127.6
98141.9
98160.5
98180.2
98196
98215.2
98226.8
98142.9
98217.2
98226.5
98234.8
98243.7
98255.1
98266.5
98276.9
98282.6
98280.5
98279.3
98267.3
98141.8
98369.3
98382.3
98392.4
98399.9
98405
98407.2
98406
98397.9
98379.7
98357.3
98327.4
98166.5
98513.9
98524.1
98531
98535
98536
98533.6
98526.8
98513.5
98489.6
98456.2
98415.9
98239.4
98647.5
98655.8
98660.8
98662.8
98662
98657.9
98649.3
98635
98611.6
98576.3
98532.9
98359.5
98773
98778.9
98782.1
98782.9
98781.4
98777.4
98770.4
98759
98741
98712.7
98678.6
98525.3
98889.8
98893.5
98895.2
98895.2
98893.9
98891.4
98887.6
98882
98873.6
98859.1
98845.8
98733
98997.9
98999.7
99000
98999.4
98998.5
98997.9
98998.1
98999.6
99003.1
99007.7
99025.4
98977.3
99097.7
99097.5
99096.6
99095.1
99094.2
99095.1
99098.9
99107.2
99122
99146.5
99204.6
99242.7
99189.6
99187.2
99184.6
99181.9
99180.2
99181.4
99187.3
99200.3
99223.2
99263.1
99364.5
99499.5
99273.4
99268.8
99264
99259.1
99255.6
99255.4
99260.8
99274.8
99299.6
99345.5
99461.8
99722.6
97814.3
97802.6
97794.2
97786.1
97784.3
97783.4
97785.5
97784.8
97800.6
97827.9
97823.2
97784.9
97905.3
97872.6
97862.6
97853.4
97855.2
97859.9
97878.6
97907.8
97961.2
98047.5
98089.2
98103.8
97964.9
97916.2
97905.9
97900.9
97914.9
97940.4
97982.2
98035.6
98086.7
98138
98174.6
98201.2
98066.4
98011.6
98003.3
98005.6
98035.1
98084.3
98145.2
98202.6
98253.2
98295.8
98326.7
98351.5
98174.6
98129.9
98127.4
98142.6
98186.2
98246.4
98310.7
98366.6
98414
98451.1
98478.3
98499.1
98306.5
98271.8
98278.5
98305.9
98358
98419.7
98478.2
98526.6
98565.3
98595.5
98618.2
98635.4
98434.4
98421.3
98437.2
98475.9
98531.7
98589.7
98639.8
98678.9
98709.7
98733.2
98750.9
98763.9
98568.9
98575.5
98599.7
98644.9
98698.3
98748.5
98789.3
98820.3
98843.8
98861.4
98874.3
98883.6
98698.8
98733.5
98761
98808.2
98854.4
98895.2
98926.8
98950.1
98967.2
98979.5
98988.3
98994.2
98829.2
98883.8
98916.6
98963.7
99001.7
99032.2
99054.3
99069.9
99080.8
99088.3
99093.4
99096.4
98969.4
99046.7
99072.1
99110.7
99138.5
99157.8
99170.6
99178.8
99184.1
99187.6
99189.6
99190.2
99083.1
99203.1
99219.1
99240.3
99255.1
99264.2
99269.5
99272.4
99274.3
99275.6
99276.1
99275.3
97752.2
97736.2
97739.6
97762.2
97801
97853.4
97915.6
97980.6
98038.4
98080.2
98106.4
98082.9
98113.1
98112.4
98114.4
98118.1
98127.6
98141.9
98160.5
98180.2
98196
98215.2
98226.8
98142.9
98217.2
98226.5
98234.8
98243.7
98255.1
98266.5
98276.9
98282.6
98280.5
98279.3
98267.3
98141.8
98369.3
98382.3
98392.4
98399.9
98405
98407.2
98406
98397.9
98379.7
98357.3
98327.4
98166.5
98513.9
98524.1
98531
98535
98536
98533.6
98526.8
98513.5
98489.6
98456.2
98415.9
98239.4
98647.5
98655.8
98660.8
98662.9
98662
98657.9
98649.3
98635
98611.6
98576.3
98532.9
98359.5
98773
98778.9
98782.1
98782.9
98781.4
98777.4
98770.4
98759
98741
98712.7
98678.6
98525.3
98889.8
98893.5
98895.2
98895.2
98893.9
98891.4
98887.6
98882
98873.6
98859.1
98845.8
98733
98997.9
98999.7
99000
98999.4
98998.5
98997.9
98998.1
98999.6
99003.1
99007.7
99025.4
98977.3
99097.7
99097.5
99096.6
99095.1
99094.2
99095.1
99098.9
99107.2
99122
99146.5
99204.6
99242.7
99189.6
99187.2
99184.6
99181.9
99180.2
99181.4
99187.3
99200.3
99223.2
99263.1
99364.5
99499.5
99273.4
99268.8
99264
99259.1
99255.6
99255.4
99260.8
99274.8
99299.6
99345.5
99461.8
99722.6
97814.3
97802.6
97794.2
97786.1
97784.3
97783.4
97785.5
97784.8
97800.6
97827.9
97823.2
97784.9
97905.3
97872.6
97862.6
97853.4
97855.2
97859.9
97878.6
97907.8
97961.2
98047.5
98089.2
98103.8
97964.9
97916.2
97905.9
97900.9
97914.9
97940.4
97982.2
98035.6
98086.7
98138
98174.6
98201.2
98066.4
98011.6
98003.3
98005.6
98035.1
98084.3
98145.2
98202.6
98253.2
98295.8
98326.7
98351.5
98174.6
98129.9
98127.4
98142.6
98186.2
98246.4
98310.7
98366.6
98414
98451.1
98478.3
98499.1
98306.5
98271.8
98278.5
98305.9
98358
98419.7
98478.2
98526.6
98565.3
98595.5
98618.2
98635.4
98434.4
98421.3
98437.2
98475.9
98531.7
98589.7
98639.8
98678.9
98709.7
98733.2
98750.8
98763.9
98568.9
98575.5
98599.7
98644.9
98698.3
98748.5
98789.3
98820.3
98843.8
98861.4
98874.3
98883.6
98698.8
98733.5
98761
98808.2
98854.4
98895.2
98926.8
98950.1
98967.2
98979.5
98988.3
98994.2
98829.2
98883.8
98916.6
98963.7
99001.7
99032.2
99054.3
99069.9
99080.8
99088.3
99093.4
99096.4
98969.4
99046.7
99072.1
99110.7
99138.5
99157.8
99170.6
99178.8
99184.1
99187.6
99189.6
99190.2
99083.1
99203.1
99219.1
99240.3
99255.1
99264.2
99269.5
99272.4
99274.3
99275.6
99276.1
99275.3
97752.2
97736.2
97739.6
97762.2
97801
97853.4
97915.6
97980.6
98038.4
98080.2
98106.4
98082.9
98113.1
98112.4
98114.4
98118.1
98127.6
98141.9
98160.5
98180.2
98196
98215.2
98226.8
98142.9
98217.2
98226.5
98234.8
98243.7
98255.1
98266.5
98276.9
98282.6
98280.5
98279.3
98267.3
98141.8
98369.3
98382.3
98392.4
98399.9
98405
98407.2
98406
98397.9
98379.7
98357.3
98327.4
98166.5
98513.9
98524.1
98531
98535
98536
98533.6
98526.8
98513.5
98489.6
98456.2
98415.9
98239.4
98647.5
98655.8
98660.8
98662.8
98662
98657.9
98649.3
98635
98611.6
98576.3
98532.9
98359.5
98773
98778.9
98782.1
98782.9
98781.4
98777.4
98770.4
98759
98741
98712.7
98678.6
98525.3
98889.8
98893.5
98895.2
98895.2
98893.9
98891.4
98887.6
98882
98873.6
98859.1
98845.8
98733
98997.9
98999.7
99000
98999.4
98998.5
98997.9
98998.1
98999.6
99003.1
99007.7
99025.4
98977.3
99097.7
99097.5
99096.6
99095.1
99094.2
99095.1
99098.9
99107.2
99122
99146.5
99204.6
99242.7
99189.6
99187.2
99184.6
99181.9
99180.2
99181.4
99187.3
99200.3
99223.2
99263.1
99364.5
99499.5
99273.4
99268.8
99264
99259.1
99255.6
99255.4
99260.8
99274.8
99299.6
99345.5
99461.8
99722.6
99344.9
99347.6
99341
99339.9
99342.1
99344.8
99346.5
99347.9
99349.4
99351
99351.9
99351.5
99384.9
99367.7
99374.6
99382.2
99389.6
99395.9
99400.7
99405.2
99409.8
99414.4
99417.8
99419.5
99402
99396.7
99404.3
99412.4
99421.1
99430.2
99439.4
99448.9
99458.8
99468.7
99476.7
99483.2
99415.5
99418.4
99424.4
99431.9
99441.4
99453.4
99467.4
99483.2
99500.7
99518.9
99535.9
99551.7
99349.3
99342.3
99334.8
99326.4
99319.6
99316.1
99318.1
99328.8
99348
99380.4
99419.1
99519.5
99417.9
99407.6
99397
99384
99372.3
99363.2
99359.2
99363.9
99375.9
99399.3
99413
99454.9
99481.9
99465.8
99451.7
99432.5
99414
99396.6
99384.1
99380
99383.5
99399.8
99407.3
99430.7
99550.7
99522.1
99503.1
99474.9
99447.9
99419.8
99395.7
99378.7
99371.2
99380.3
99388.4
99414.3
99344.9
99347.6
99341
99339.9
99342.1
99344.8
99346.5
99347.9
99349.4
99351
99351.9
99351.5
99384.9
99367.7
99374.6
99382.2
99389.6
99395.9
99400.7
99405.2
99409.8
99414.4
99417.8
99419.5
99402
99396.7
99404.3
99412.4
99421.1
99430.2
99439.4
99448.9
99458.8
99468.7
99476.7
99483.2
99415.5
99418.4
99424.4
99431.9
99441.4
99453.4
99467.4
99483.2
99500.7
99518.9
99535.9
99551.7
99349.3
99342.3
99334.8
99326.4
99319.6
99316.1
99318.1
99328.8
99348
99380.4
99419.1
99519.5
99417.9
99407.6
99397
99384
99372.3
99363.2
99359.2
99363.9
99375.9
99399.3
99413
99454.9
99481.9
99465.8
99451.7
99432.5
99414
99396.6
99384.1
99380
99383.5
99399.8
99407.3
99430.7
99550.7
99522.1
99503.1
99474.9
99447.9
99419.8
99395.7
99378.7
99371.2
99380.3
99388.4
99414.3
99344.9
99347.6
99341
99340
99342.1
99344.8
99346.5
99347.9
99349.4
99351
99351.9
99351.5
99384.9
99367.7
99374.6
99382.2
99389.6
99395.9
99400.7
99405.2
99409.8
99414.4
99417.8
99419.5
99402
99396.7
99404.3
99412.4
99421.1
99430.2
99439.4
99448.9
99458.8
99468.7
99476.7
99483.2
99415.5
99418.4
99424.4
99431.9
99441.4
99453.4
99467.4
99483.2
99500.7
99518.9
99535.9
99551.7
99349.3
99342.3
99334.8
99326.4
99319.6
99316.1
99318.1
99328.8
99348
99380.4
99419.1
99519.5
99417.9
99407.6
99397
99384
99372.3
99363.2
99359.2
99363.9
99375.9
99399.3
99413
99454.9
99481.9
99465.8
99451.7
99432.5
99414
99396.6
99384.1
99380
99383.5
99399.8
99407.3
99430.7
99550.7
99522.1
99503.1
99474.9
99447.9
99419.8
99395.7
99378.7
99371.2
99380.3
99388.4
99414.3
99344.9
99347.6
99341
99339.9
99342.1
99344.8
99346.5
99347.9
99349.4
99351
99351.9
99351.5
99384.9
99367.7
99374.6
99382.2
99389.6
99395.9
99400.7
99405.2
99409.8
99414.4
99417.8
99419.5
99402
99396.7
99404.3
99412.4
99421.1
99430.2
99439.4
99448.9
99458.8
99468.7
99476.7
99483.2
99415.5
99418.4
99424.4
99431.9
99441.4
99453.4
99467.4
99483.2
99500.7
99518.9
99535.9
99551.7
99349.3
99342.3
99334.8
99326.4
99319.6
99316.1
99318.1
99328.8
99348
99380.4
99419.1
99519.5
99417.9
99407.6
99397
99384
99372.3
99363.2
99359.2
99363.9
99375.9
99399.3
99413
99454.9
99481.9
99465.8
99451.7
99432.5
99414
99396.6
99384.1
99380
99383.5
99399.8
99407.3
99430.7
99550.7
99522.1
99503.1
99474.9
99447.9
99419.8
99395.7
99378.7
99371.2
99380.3
99388.4
99414.3
99432.7
99441.1
99446.9
99453.4
99461.6
99472.3
99485
99499.8
99516.1
99533.4
99550.5
99568.8
99456.6
99463.7
99469.2
99475.3
99482
99489.5
99497.6
99506.3
99514.9
99524.4
99532.8
99547.1
99476.2
99481.5
99486
99490.8
99495.6
99500.7
99505.5
99510.2
99514
99519.3
99523.4
99528.7
99490.7
99494.5
99497.5
99500.8
99503.7
99506.6
99508.9
99510.9
99511.7
99514.6
99511.2
99485.6
99582.2
99555.5
99536.6
99506.2
99478.8
99448.8
99422.4
99401.2
99388.9
99390.8
99395.6
99418.6
99582
99553.6
99543.7
99519.2
99499.6
99477.1
99458.3
99443.1
99434.2
99434
99436.3
99448.7
99603
99553.7
99552.5
99530.6
99515.8
99497.8
99483.4
99471.4
99464.4
99463.3
99464.5
99471.5
99647.9
99552
99559.4
99540.2
99528.4
99513.4
99501.8
99491.9
99486
99484
99483.9
99487.8
99432.7
99441.1
99446.9
99453.4
99461.6
99472.3
99485
99499.8
99516.1
99533.4
99550.5
99568.8
99456.6
99463.7
99469.2
99475.3
99482
99489.5
99497.6
99506.3
99514.9
99524.4
99532.8
99547.1
99476.2
99481.5
99486
99490.8
99495.6
99500.7
99505.5
99510.2
99514
99519.3
99523.4
99528.7
99490.7
99494.5
99497.5
99500.8
99503.7
99506.6
99508.9
99510.9
99511.7
99514.6
99511.2
99485.6
99582.2
99555.5
99536.6
99506.2
99478.8
99448.8
99422.4
99401.2
99388.9
99390.8
99395.6
99418.6
99582
99553.6
99543.7
99519.2
99499.6
99477.1
99458.3
99443.1
99434.2
99434
99436.3
99448.7
99603.1
99553.7
99552.5
99530.6
99515.8
99497.8
99483.4
99471.4
99464.4
99463.3
99464.5
99471.5
99647.9
99552
99559.4
99540.2
99528.4
99513.4
99501.8
99491.9
99486
99484
99483.9
99487.8
99432.7
99441.1
99446.9
99453.4
99461.6
99472.3
99485
99499.8
99516.1
99533.4
99550.5
99568.8
99456.6
99463.7
99469.2
99475.3
99482
99489.5
99497.6
99506.3
99514.9
99524.4
99532.8
99547.1
99476.2
99481.5
99486
99490.8
99495.6
99500.7
99505.5
99510.2
99514
99519.3
99523.4
99528.7
99490.7
99494.5
99497.5
99500.8
99503.7
99506.6
99508.9
99510.9
99511.7
99514.6
99511.2
99485.6
99582.2
99555.5
99536.6
99506.2
99478.8
99448.8
99422.4
99401.2
99388.9
99390.8
99395.6
99418.6
99582
99553.6
99543.7
99519.2
99499.6
99477.1
99458.3
99443.1
99434.2
99434
99436.3
99448.7
99603.1
99553.7
99552.5
99530.6
99515.8
99497.8
99483.4
99471.4
99464.4
99463.3
99464.5
99471.5
99647.9
99552
99559.4
99540.2
99528.4
99513.4
99501.8
99491.9
99486
99484
99483.9
99487.8
99432.7
99441.1
99446.9
99453.4
99461.6
99472.3
99485
99499.8
99516.1
99533.4
99550.5
99568.8
99456.6
99463.7
99469.2
99475.3
99482
99489.5
99497.6
99506.3
99514.9
99524.4
99532.8
99547.1
99476.2
99481.5
99486
99490.8
99495.6
99500.7
99505.5
99510.2
99514
99519.3
99523.4
99528.7
99490.7
99494.5
99497.5
99500.8
99503.7
99506.6
99508.9
99510.9
99511.7
99514.6
99511.2
99485.6
99582.2
99555.5
99536.6
99506.2
99478.8
99448.8
99422.4
99401.2
99388.9
99390.8
99395.6
99418.6
99582
99553.6
99543.7
99519.2
99499.6
99477.1
99458.3
99443.1
99434.2
99434
99436.3
99448.7
99603
99553.7
99552.5
99530.6
99515.8
99497.8
99483.4
99471.4
99464.4
99463.3
99464.5
99471.5
99647.9
99552
99559.4
99540.2
99528.4
99513.4
99501.8
99491.9
99486
99484
99483.9
99487.8
99500.8
99502.9
99504.5
99506.2
99507.3
99508.3
99508.2
99507.7
99504.2
99499.1
99487.7
99434.3
99507
99507.7
99508
99508.3
99508
99507.6
99505.8
99503
99498
99495
99490.2
99465.5
99510.2
99509.9
99509.2
99508.7
99507.3
99505.6
99502.7
99501.3
99498.7
99494.1
99488.7
99470
99511.7
99510.7
99509.2
99507.6
99505.6
99504.8
99503.6
99501.7
99498.7
99494.4
99490.1
99477.8
99512.1
99510.3
99508.4
99507.8
99506.8
99505.5
99503.4
99501
99498
99493.9
99489.9
99481.5
99512
99510.8
99509.5
99508.2
99506.6
99505
99503.2
99501
99498.1
99494.5
99491.1
99484.9
99513
99511.4
99509.6
99508.2
99506.6
99505
99502.8
99500.6
99497.7
99494.5
99491.4
99487.1
99513.3
99511.5
99509.8
99508.2
99506.6
99504.9
99502.9
99500.6
99497.9
99494.9
99492.1
99488.7
99513.6
99511.8
99509.8
99508.3
99506.5
99504.7
99502.6
99500.4
99497.7
99495
99492.4
99489.8
99513.9
99511.8
99510.1
99508.3
99506.6
99504.7
99502.7
99500.4
99497.8
99495.2
99492.8
99490.5
99514
99512
99510
99508.3
99506.5
99504.7
99502.5
99500.3
99497.8
99495.4
99492.9
99491
99514.3
99511.9
99510.2
99508.3
99506.6
99504.6
99502.6
99500.3
99497.9
99495.3
99493
99491.2
99745.6
99546.7
99563
99547
99537.3
99524.6
99515.1
99506.8
99501.4
99498.7
99497.6
99499.3
99719.7
99542
99564
99550.7
99543
99532.3
99524.3
99517.1
99511.9
99508.6
99506.6
99506.8
99701.1
99541.4
99564.5
99552.1
99546.6
99537.4
99530.2
99523.6
99518.4
99514.7
99512.1
99511.1
99665.8
99538.4
99563.5
99552.3
99548.5
99540.5
99533.7
99527.4
99522.1
99518.1
99515
99513.3
99632.6
99536.3
99562.5
99552.2
99548.9
99542.2
99535.3
99529.3
99524
99519.9
99516.6
99514.3
99603.6
99536.8
99561.7
99552.5
99548.6
99542.8
99536
99530.3
99524.9
99520.7
99516.9
99514.2
99576.7
99540.8
99560.8
99553.5
99548.6
99542.8
99536.2
99530.4
99525.1
99521
99517.4
99515.2
99554.8
99551.6
99560.6
99554.8
99548.4
99542.9
99536.2
99530.8
99525.7
99521.8
99518.3
99515.7
99534.2
99562.4
99560.2
99556.7
99549
99543.6
99536.9
99531.8
99526.3
99522.4
99518.7
99516.2
99530.2
99577.5
99562.6
99559
99550.7
99544.1
99537.7
99532
99527
99522.8
99519.3
99516.3
99484.8
99586.6
99563.3
99560.7
99551.8
99544.9
99538.1
99532.6
99527.2
99523.2
99519.3
99516.6
99559.2
99626
99569.5
99563.3
99553.6
99545.1
99538.8
99532.6
99527.7
99523.1
99519.8
99516.6
99500.8
99502.9
99504.5
99506.2
99507.3
99508.3
99508.2
99507.7
99504.2
99499.1
99487.7
99434.3
99507
99507.7
99508
99508.3
99508
99507.6
99505.8
99503
99498
99495
99490.2
99465.5
99510.2
99509.9
99509.2
99508.7
99507.3
99505.6
99502.7
99501.3
99498.7
99494.1
99488.7
99470
99511.7
99510.7
99509.2
99507.6
99505.6
99504.8
99503.6
99501.7
99498.7
99494.4
99490.1
99477.8
99512.1
99510.3
99508.4
99507.8
99506.8
99505.5
99503.4
99501
99498
99493.9
99489.9
99481.5
99512
99510.8
99509.5
99508.2
99506.6
99505
99503.2
99501
99498.1
99494.5
99491.1
99484.9
99513
99511.4
99509.6
99508.2
99506.6
99505
99502.8
99500.6
99497.7
99494.5
99491.4
99487.1
99513.3
99511.5
99509.8
99508.2
99506.6
99504.9
99502.9
99500.6
99497.9
99494.9
99492.1
99488.7
99513.6
99511.8
99509.8
99508.3
99506.5
99504.7
99502.6
99500.4
99497.7
99495
99492.4
99489.8
99513.9
99511.8
99510.1
99508.3
99506.6
99504.7
99502.7
99500.4
99497.8
99495.2
99492.8
99490.5
99514
99512
99510
99508.3
99506.5
99504.7
99502.5
99500.3
99497.8
99495.4
99492.9
99491
99514.3
99511.9
99510.2
99508.3
99506.6
99504.6
99502.6
99500.3
99497.9
99495.3
99493
99491.2
99745.6
99546.7
99563
99547
99537.3
99524.6
99515.1
99506.8
99501.4
99498.7
99497.6
99499.3
99719.7
99542
99564
99550.7
99543
99532.3
99524.3
99517.1
99511.9
99508.6
99506.6
99506.8
99701.1
99541.4
99564.5
99552.1
99546.6
99537.4
99530.2
99523.6
99518.4
99514.7
99512.1
99511.1
99665.8
99538.4
99563.5
99552.3
99548.5
99540.5
99533.7
99527.4
99522.1
99518.1
99515
99513.3
99632.6
99536.3
99562.5
99552.2
99548.9
99542.2
99535.3
99529.3
99524
99519.9
99516.6
99514.3
99603.6
99536.8
99561.7
99552.5
99548.6
99542.8
99536
99530.3
99524.9
99520.7
99516.9
99514.2
99576.7
99540.8
99560.8
99553.5
99548.6
99542.8
99536.2
99530.5
99525.1
99521
99517.4
99515.2
99554.8
99551.6
99560.6
99554.8
99548.4
99542.9
99536.2
99530.8
99525.7
99521.8
99518.3
99515.7
99534.2
99562.4
99560.2
99556.7
99549
99543.6
99536.9
99531.8
99526.3
99522.4
99518.7
99516.2
99530.2
99577.5
99562.6
99559
99550.7
99544.1
99537.7
99532
99527
99522.8
99519.3
99516.3
99484.8
99586.6
99563.3
99560.7
99551.8
99544.9
99538.1
99532.6
99527.2
99523.2
99519.3
99516.6
99559.2
99626
99569.5
99563.3
99553.6
99545.1
99538.8
99532.6
99527.7
99523.1
99519.8
99516.6
99500.8
99502.9
99504.5
99506.2
99507.3
99508.3
99508.2
99507.7
99504.2
99499.1
99487.7
99434.3
99507
99507.7
99508
99508.3
99508
99507.6
99505.8
99503
99498
99495
99490.2
99465.5
99510.2
99509.9
99509.2
99508.7
99507.3
99505.6
99502.7
99501.3
99498.7
99494.1
99488.7
99470
99511.7
99510.7
99509.2
99507.6
99505.6
99504.8
99503.6
99501.7
99498.7
99494.4
99490.1
99477.8
99512.1
99510.3
99508.4
99507.8
99506.8
99505.5
99503.4
99501
99498
99493.9
99489.9
99481.5
99512
99510.8
99509.5
99508.2
99506.6
99505
99503.2
99501
99498.1
99494.5
99491.1
99484.9
99513
99511.4
99509.6
99508.2
99506.6
99505
99502.8
99500.6
99497.7
99494.5
99491.4
99487.1
99513.3
99511.5
99509.8
99508.2
99506.6
99504.9
99502.9
99500.6
99497.9
99494.9
99492.1
99488.7
99513.6
99511.8
99509.8
99508.3
99506.5
99504.7
99502.6
99500.4
99497.7
99495
99492.4
99489.8
99513.9
99511.8
99510.1
99508.3
99506.6
99504.7
99502.7
99500.4
99497.8
99495.2
99492.8
99490.5
99514
99512
99510
99508.3
99506.5
99504.7
99502.5
99500.3
99497.8
99495.4
99492.9
99491
99514.3
99511.9
99510.2
99508.3
99506.6
99504.6
99502.6
99500.3
99497.9
99495.3
99493
99491.2
99745.6
99546.7
99563
99547
99537.3
99524.6
99515.1
99506.8
99501.4
99498.7
99497.6
99499.3
99719.7
99542
99564
99550.7
99543
99532.3
99524.3
99517.1
99511.9
99508.6
99506.6
99506.8
99701.1
99541.4
99564.5
99552.1
99546.6
99537.4
99530.2
99523.6
99518.4
99514.7
99512.1
99511.1
99665.8
99538.4
99563.5
99552.3
99548.5
99540.5
99533.7
99527.4
99522.1
99518.1
99515
99513.3
99632.6
99536.3
99562.5
99552.2
99548.9
99542.2
99535.3
99529.3
99524
99519.9
99516.6
99514.3
99603.6
99536.8
99561.7
99552.5
99548.6
99542.8
99536
99530.3
99524.9
99520.7
99516.9
99514.2
99576.7
99540.8
99560.8
99553.5
99548.6
99542.8
99536.2
99530.5
99525.1
99521
99517.4
99515.2
99554.8
99551.6
99560.6
99554.8
99548.4
99542.9
99536.2
99530.8
99525.7
99521.8
99518.3
99515.7
99534.2
99562.4
99560.2
99556.7
99549
99543.6
99536.9
99531.8
99526.3
99522.4
99518.7
99516.2
99530.2
99577.5
99562.6
99559
99550.7
99544.1
99537.7
99532
99527
99522.8
99519.3
99516.3
99484.8
99586.6
99563.3
99560.7
99551.8
99544.9
99538.1
99532.6
99527.2
99523.2
99519.3
99516.6
99559.2
99626
99569.5
99563.3
99553.6
99545.1
99538.8
99532.6
99527.7
99523.1
99519.8
99516.6
99500.8
99502.9
99504.5
99506.2
99507.3
99508.3
99508.2
99507.7
99504.2
99499.1
99487.7
99434.3
99507
99507.7
99508
99508.3
99508
99507.6
99505.8
99503
99498
99495
99490.2
99465.5
99510.2
99509.9
99509.2
99508.7
99507.3
99505.6
99502.7
99501.3
99498.7
99494.1
99488.7
99470
99511.7
99510.7
99509.2
99507.6
99505.6
99504.8
99503.6
99501.7
99498.7
99494.4
99490.1
99477.8
99512.1
99510.3
99508.4
99507.8
99506.8
99505.5
99503.4
99501
99498
99493.9
99489.9
99481.5
99512
99510.8
99509.5
99508.2
99506.6
99505
99503.2
99501
99498.1
99494.5
99491.1
99484.9
99513
99511.4
99509.6
99508.2
99506.6
99505
99502.8
99500.6
99497.7
99494.5
99491.4
99487.1
99513.3
99511.5
99509.8
99508.2
99506.6
99504.9
99502.9
99500.6
99497.9
99494.9
99492.1
99488.7
99513.6
99511.8
99509.8
99508.3
99506.5
99504.7
99502.6
99500.4
99497.7
99495
99492.4
99489.8
99513.9
99511.8
99510.1
99508.3
99506.6
99504.7
99502.7
99500.4
99497.8
99495.2
99492.8
99490.5
99514
99512
99510
99508.3
99506.5
99504.7
99502.5
99500.3
99497.8
99495.4
99492.9
99491
99514.3
99511.9
99510.2
99508.3
99506.6
99504.6
99502.6
99500.3
99497.9
99495.3
99493
99491.2
99745.6
99546.7
99563
99547
99537.3
99524.6
99515.1
99506.8
99501.4
99498.7
99497.6
99499.3
99719.7
99542
99564
99550.7
99543
99532.3
99524.3
99517.1
99511.9
99508.6
99506.6
99506.8
99701.1
99541.4
99564.5
99552.1
99546.6
99537.4
99530.2
99523.6
99518.4
99514.7
99512.1
99511.1
99665.8
99538.4
99563.5
99552.3
99548.5
99540.5
99533.7
99527.4
99522.1
99518.1
99515
99513.3
99632.6
99536.3
99562.5
99552.2
99548.9
99542.2
99535.3
99529.3
99524
99519.9
99516.6
99514.3
99603.6
99536.8
99561.7
99552.5
99548.6
99542.8
99536
99530.3
99524.9
99520.7
99516.9
99514.2
99576.7
99540.8
99560.8
99553.5
99548.6
99542.8
99536.2
99530.4
99525.1
99521
99517.4
99515.2
99554.8
99551.6
99560.6
99554.8
99548.4
99542.9
99536.2
99530.8
99525.7
99521.8
99518.3
99515.7
99534.2
99562.4
99560.2
99556.7
99549
99543.6
99536.9
99531.8
99526.3
99522.4
99518.7
99516.2
99530.2
99577.5
99562.6
99559
99550.7
99544.1
99537.7
99532
99527
99522.8
99519.3
99516.3
99484.8
99586.6
99563.3
99560.7
99551.8
99544.9
99538.1
99532.6
99527.2
99523.2
99519.3
99516.6
99559.2
99626
99569.5
99563.3
99553.6
99545.1
99538.8
99532.6
99527.7
99523.1
99519.8
99516.6
)
;

boundaryField
{
    rotor
    {
        type            zeroGradient;
    }
    stator
    {
        type            zeroGradient;
    }
    front
    {
        type            empty;
    }
    back
    {
        type            empty;
    }
}


// ************************************************************************* //
