/*--------------------------------*- C++ -*----------------------------------*\
| =========                 |                                                 |
| \\      /  F ield         | OpenFOAM: The Open Source CFD Toolbox           |
|  \\    /   O peration     | Version:  2212                                  |
|   \\  /    A nd           | Website:  www.openfoam.com                      |
|    \\/     M anipulation  |                                                 |
\*---------------------------------------------------------------------------*/
FoamFile
{
    version     2.0;
    format      ascii;
    arch        "LSB;label=32;scalar=64";
    class       volScalarField;
    location    "0.04";
    object      p;
}
// * * * * * * * * * * * * * * * * * * * * * * * * * * * * * * * * * * * * * //

dimensions      [1 -1 -2 0 0 0 0];

internalField   nonuniform List<scalar> 
3072
(
98332
98312.9
98301.6
98293.4
98290.6
98292
98292.1
98305.1
98335.6
98334.7
98290.2
98244.3
98415.2
98372.2
98361.3
98354.7
98359.3
98381.5
98414.5
98464.4
98564.4
98619.9
98635.4
98643.1
98476.5
98417.8
98411.3
98417
98444
98488.8
98548.4
98603.4
98660.8
98702.6
98730.6
98750.6
98595.7
98540.3
98541.8
98562.3
98612.7
98673.5
98732.9
98785.9
98831.2
98864.1
98890
98910.2
98720.2
98687.2
98699.7
98734.6
98791.5
98851.6
98907.4
98956.2
98995.4
99024.1
99045.8
99061.9
98855.7
98840.7
98863.7
98908.6
98967.3
99023.3
99073.4
99113.4
99144.8
99168.4
99186
99199
98980.2
98990.2
99021.1
99074.2
99132.7
99185.1
99227.6
99260.2
99284.9
99302.8
99315.8
99325
99108.7
99138.9
99176.5
99234.1
99288.8
99334.9
99370
99395.6
99413.7
99426
99434.2
99439.5
99236.7
99294.7
99332.4
99389.7
99436.9
99474.6
99501.4
99519.4
99530.8
99537.5
99541.1
99542.7
99366.2
99441.7
99483.1
99538.5
99577
99604.5
99621.9
99631.7
99636.4
99637.5
99636.6
99634.6
99509.4
99606
99636.6
99679.8
99706.5
99721.8
99729.1
99730.7
99728.8
99724.8
99719.8
99714.7
99615.1
99764.4
99781.4
99802.3
99814.1
99817.8
99816.4
99811.4
99804.6
99796.9
99789.1
99781.6
98209.6
98200.7
98213.7
98250.2
98304.8
98376.2
98458.2
98544
98621.5
98683.4
98723.3
98696.2
98644
98645.3
98650.2
98660.7
98677.8
98701.2
98729.8
98759.2
98784.4
98816.6
98835.6
98738.7
98760.1
98768.1
98777.8
98791.3
98807.9
98825.6
98842.5
98854.4
98857.2
98860.7
98851.3
98710.5
98925.4
98937.9
98948
98956.9
98964.4
98970
98972.4
98968.1
98952.2
98929.4
98901
98722
99073.7
99082.7
99089.4
99094.2
99096.9
99096.7
99092.4
99081.8
99060
99025.9
98985.5
98793.2
99208.3
99215.1
99219.7
99222.4
99223.2
99221.4
99215.7
99204.6
99183.9
99150.4
99108
98920.5
99331.4
99335.8
99338.8
99340.5
99341.2
99340.4
99337.3
99330.5
99317.1
99292.4
99262.9
99102
99443
99445.3
99447.1
99448.7
99450.6
99452.6
99454.6
99455.7
99454.8
99447.9
99445
99332.2
99543.3
99543.7
99544.5
99546.3
99549.8
99555.4
99563.6
99574.4
99588.4
99604.7
99639.3
99603.6
99632.5
99630.9
99630.7
99632.6
99637.6
99646.6
99660.7
99681
99709.6
99749.8
99832.5
99897.7
99710
99706.7
99705.3
99706.9
99712.7
99724.1
99742.5
99770
99809.4
99868.2
100000
100175
99775.2
99770.4
99767.9
99768.8
99774.4
99786.4
99806.5
99837.3
99880.6
99947.7
100097
100416
98325.9
98309.2
98298.8
98291
98289.2
98289.2
98291.1
98297.7
98320.5
98333.5
98300.2
98255.5
98412.1
98372.4
98361.5
98354.4
98358.2
98373.7
98404.9
98442.7
98534.5
98603.2
98621.5
98632.4
98471.7
98415.6
98407.8
98409.7
98434.1
98471.6
98528.5
98581.8
98637.1
98683.2
98712.1
98734.5
98585.2
98528.5
98527
98541.8
98587.5
98647.1
98707.6
98761.5
98808.3
98843.8
98870.5
98891.5
98704.9
98668.1
98676.1
98705.8
98760.6
98822.3
98880.7
98930.6
98971.6
99002.1
99024.6
99041.4
98840.6
98819.6
98838.4
98879
98937.1
98994.8
99046.4
99088
99120.7
99145.4
99163.7
99177.1
98966
98969.7
98996.7
99046.5
99104.7
99158
99201.4
99235.2
99260.8
99279.5
99292.9
99302.3
99096.2
99119.9
99153.9
99208.5
99262.6
99309
99344.7
99371
99389.6
99402.4
99410.9
99416.5
99224.3
99276.5
99311.3
99365.9
99412.3
99450
99477
99495.4
99507.1
99514
99517.8
99519.5
99353.8
99424
99463.1
99516.5
99554.3
99581.7
99599
99608.9
99613.5
99614.6
99613.5
99611.5
99496.3
99588.4
99617.5
99659.6
99685.9
99701
99707.9
99709.2
99706.9
99702.5
99697.1
99691.7
99602.3
99745.2
99762.3
99783.3
99795.1
99798.6
99796.6
99791.1
99783.6
99775.2
99766.6
99758.7
98220.8
98208.6
98217.7
98248.9
98297.9
98362.8
98438.5
98518.3
98590.6
98647.5
98684.6
98658.1
98634.5
98635.4
98638.6
98646.6
98660.2
98680.2
98704.9
98731.1
98753.1
98781.8
98799.8
98705.6
98745.1
98753
98761.3
98773
98787.6
98803.1
98817.8
98827.7
98828.9
98830.6
98821.6
98683.9
98906.6
98919
98928.7
98936.7
98943
98947.2
98948.2
98942.4
98925.6
98902.3
98874.8
98698.9
99053.2
99062
99068.4
99072.6
99074.5
99073.3
99068.1
99056.8
99034.2
98999.8
98960.6
98769.9
99186.6
99193.2
99197.6
99199.9
99200.2
99197.7
99191.1
99179.2
99157.7
99123.1
99081.4
98894.4
99308.8
99313.2
99316
99317.5
99317.7
99316.3
99312.4
99304.7
99290.1
99264
99233.5
99070.7
99420
99422.3
99424
99425.4
99426.8
99428.2
99429.2
99429.2
99426.6
99417.3
99411.5
99294
99520.1
99520.5
99521.2
99522.8
99525.9
99530.9
99538
99547.3
99559.3
99572.4
99601.7
99558.4
99609.3
99607.7
99607.5
99609.3
99613.9
99622.3
99635.2
99653.8
99680.2
99716.9
99792.1
99847.4
99686.9
99683.5
99682.2
99683.8
99689.4
99700.3
99717.6
99743.5
99780.8
99836.3
99960.8
100125
99751.9
99747.1
99744.9
99746.1
99751.7
99763.4
99782.8
99812.2
99854
99918.7
100062
100377
98332
98312.9
98301.6
98293.4
98290.6
98292
98292.1
98305.1
98335.6
98334.7
98290.2
98244.3
98415.2
98372.2
98361.3
98354.7
98359.3
98381.5
98414.5
98464.4
98564.4
98619.9
98635.4
98643.1
98476.5
98417.8
98411.3
98417
98444
98488.8
98548.4
98603.4
98660.8
98702.6
98730.6
98750.6
98595.7
98540.3
98541.8
98562.3
98612.7
98673.5
98732.8
98785.9
98831.2
98864.1
98890
98910.2
98720.2
98687.2
98699.7
98734.6
98791.5
98851.6
98907.4
98956.2
98995.4
99024.1
99045.8
99061.9
98855.7
98840.6
98863.7
98908.6
98967.3
99023.3
99073.4
99113.4
99144.8
99168.4
99186
99199
98980.2
98990.2
99021.1
99074.2
99132.7
99185.1
99227.6
99260.2
99284.9
99302.8
99315.8
99325
99108.7
99138.9
99176.5
99234.1
99288.8
99334.9
99370
99395.6
99413.7
99426
99434.2
99439.5
99236.7
99294.7
99332.4
99389.7
99436.9
99474.6
99501.4
99519.4
99530.8
99537.5
99541.1
99542.7
99366.2
99441.7
99483.1
99538.5
99577
99604.5
99621.9
99631.7
99636.4
99637.5
99636.6
99634.6
99509.4
99606
99636.6
99679.8
99706.5
99721.8
99729.1
99730.7
99728.8
99724.8
99719.8
99714.7
99615.1
99764.4
99781.4
99802.3
99814.1
99817.8
99816.4
99811.4
99804.6
99796.9
99789.1
99781.6
98209.6
98200.7
98213.7
98250.2
98304.8
98376.2
98458.2
98544
98621.5
98683.4
98723.3
98696.2
98644
98645.3
98650.2
98660.7
98677.8
98701.2
98729.8
98759.2
98784.4
98816.6
98835.6
98738.7
98760.1
98768.1
98777.8
98791.3
98807.9
98825.6
98842.5
98854.4
98857.2
98860.7
98851.3
98710.5
98925.4
98937.9
98948
98956.9
98964.4
98970
98972.4
98968.1
98952.2
98929.4
98901
98722
99073.7
99082.7
99089.4
99094.2
99096.9
99096.6
99092.4
99081.8
99060
99025.9
98985.5
98793.2
99208.3
99215.1
99219.7
99222.4
99223.2
99221.4
99215.7
99204.6
99183.9
99150.4
99108
98920.5
99331.4
99335.8
99338.8
99340.5
99341.2
99340.4
99337.3
99330.5
99317.1
99292.4
99262.9
99102
99443
99445.3
99447.1
99448.7
99450.6
99452.6
99454.6
99455.7
99454.8
99447.9
99445
99332.2
99543.3
99543.7
99544.5
99546.3
99549.8
99555.4
99563.6
99574.4
99588.4
99604.7
99639.2
99603.6
99632.5
99630.9
99630.7
99632.6
99637.6
99646.6
99660.7
99681
99709.6
99749.8
99832.5
99897.7
99710
99706.7
99705.3
99706.9
99712.7
99724.1
99742.5
99770
99809.4
99868.2
100000
100175
99775.2
99770.4
99767.9
99768.8
99774.4
99786.4
99806.5
99837.3
99880.6
99947.7
100097
100416
98325.9
98309.2
98298.8
98291
98289.2
98289.2
98291.1
98297.7
98320.5
98333.5
98300.2
98255.5
98412.1
98372.4
98361.5
98354.4
98358.2
98373.7
98404.9
98442.7
98534.5
98603.2
98621.5
98632.4
98471.7
98415.6
98407.8
98409.7
98434.1
98471.6
98528.5
98581.8
98637.1
98683.2
98712.1
98734.5
98585.2
98528.5
98527
98541.8
98587.5
98647.1
98707.6
98761.5
98808.3
98843.8
98870.5
98891.5
98704.9
98668.1
98676.1
98705.8
98760.6
98822.3
98880.7
98930.6
98971.6
99002.1
99024.6
99041.4
98840.6
98819.6
98838.4
98879
98937.1
98994.8
99046.4
99088
99120.7
99145.4
99163.7
99177.1
98966
98969.7
98996.7
99046.5
99104.7
99158
99201.4
99235.2
99260.8
99279.5
99292.9
99302.3
99096.2
99119.9
99153.9
99208.5
99262.6
99309
99344.7
99371
99389.6
99402.4
99410.9
99416.5
99224.3
99276.5
99311.3
99365.9
99412.3
99450
99477
99495.4
99507.1
99514
99517.8
99519.5
99353.8
99424
99463.1
99516.5
99554.3
99581.7
99599
99608.9
99613.5
99614.6
99613.5
99611.5
99496.3
99588.4
99617.5
99659.6
99685.9
99701
99707.9
99709.2
99706.9
99702.5
99697.1
99691.7
99602.3
99745.2
99762.3
99783.3
99795.1
99798.6
99796.6
99791.1
99783.6
99775.2
99766.6
99758.7
98220.8
98208.6
98217.7
98248.9
98297.9
98362.8
98438.5
98518.3
98590.6
98647.5
98684.6
98658.1
98634.5
98635.4
98638.6
98646.6
98660.2
98680.2
98704.9
98731.1
98753.1
98781.8
98799.8
98705.6
98745.1
98753
98761.3
98773
98787.6
98803.1
98817.8
98827.7
98828.9
98830.6
98821.6
98683.9
98906.6
98919
98928.7
98936.7
98943
98947.2
98948.2
98942.4
98925.6
98902.3
98874.8
98698.9
99053.2
99062
99068.4
99072.6
99074.5
99073.3
99068.1
99056.8
99034.2
98999.8
98960.6
98769.9
99186.6
99193.2
99197.6
99199.9
99200.2
99197.7
99191.1
99179.2
99157.7
99123.1
99081.4
98894.4
99308.8
99313.2
99316
99317.5
99317.7
99316.3
99312.4
99304.7
99290.1
99264
99233.5
99070.7
99420
99422.3
99424
99425.4
99426.8
99428.2
99429.2
99429.2
99426.6
99417.3
99411.5
99294
99520.1
99520.5
99521.2
99522.8
99525.9
99530.9
99538
99547.3
99559.3
99572.4
99601.7
99558.4
99609.3
99607.7
99607.5
99609.3
99613.9
99622.3
99635.2
99653.8
99680.2
99716.9
99792.1
99847.4
99686.9
99683.5
99682.2
99683.8
99689.4
99700.3
99717.6
99743.5
99780.8
99836.3
99960.8
100125
99751.9
99747.1
99744.9
99746.1
99751.7
99763.4
99782.8
99812.2
99854
99918.7
100062
100377
99910.3
99916.1
99903.5
99896.1
99891.5
99886.5
99879.6
99871.2
99862.1
99852.8
99843.7
99835.2
99944.7
99923.9
99925.9
99927.6
99927.4
99924.4
99918.6
99911.1
99902.6
99893.7
99884.9
99876.5
99951.9
99942.9
99946.4
99948.2
99948.3
99946.3
99942.2
99936.7
99930.1
99922.9
99915.6
99907.9
99955.4
99954.2
99956.9
99958.4
99958.9
99958.1
99955.9
99952.6
99948.6
99944
99939
99933.3
99827.9
99822.1
99818.6
99818.6
99823.1
99834
99852.6
99881.8
99919.5
99970
100021
100136
99869.1
99862.9
99858.4
99856.9
99859.6
99868.1
99883
99907.4
99938.1
99978
100002
100043
99901.1
99894.5
99888.8
99885.2
99884.9
99889.5
99899.1
99916.6
99939.2
99970.8
99987.4
100005
99927.7
99919.9
99912
99905.6
99901.2
99899.9
99902.4
99910.9
99923.7
99947.1
99961.4
99982.6
99898.5
99900.2
99887.7
99879.6
99874.5
99868.9
99861.2
99851.9
99841.8
99831.5
99821.2
99811.8
99940.8
99914.7
99914
99913.7
99912.4
99908.4
99901.6
99892.9
99883
99872.4
99861.8
99852
99955.7
99941
99940.9
99939.8
99937.7
99933.8
99928
99920.5
99911.6
99901.7
99891.5
99881.6
99968.3
99963.2
99962.1
99960.1
99957.5
99953.9
99949
99942.7
99935.1
99926.2
99916.3
99906.1
99803.9
99798.2
99795.4
99796
99800.9
99811.9
99830.3
99858.7
99896.1
99946.3
99999.5
100120
99843.5
99837.5
99834.2
99834
99837.7
99846.8
99862.2
99886.7
99918
99959
99987.4
100033
99873.1
99867.1
99863.4
99862.2
99864
99870
99880.7
99898.8
99922.3
99954.9
99974.7
99994.1
99897.3
99891.7
99888
99885.7
99884.9
99886.4
99890.4
99899.2
99911.5
99933.3
99948.1
99967.7
99910.3
99916.1
99903.5
99896.1
99891.5
99886.5
99879.6
99871.2
99862.1
99852.8
99843.7
99835.2
99944.7
99923.9
99925.9
99927.6
99927.4
99924.4
99918.6
99911.1
99902.6
99893.7
99884.9
99876.5
99951.9
99942.9
99946.4
99948.2
99948.3
99946.3
99942.2
99936.7
99930.1
99922.9
99915.6
99907.9
99955.4
99954.2
99956.9
99958.4
99958.9
99958.1
99955.9
99952.6
99948.6
99944
99939
99933.3
99827.9
99822.1
99818.6
99818.6
99823.1
99834
99852.6
99881.8
99919.5
99970
100021
100136
99869.1
99862.9
99858.4
99856.9
99859.6
99868.1
99883
99907.4
99938.1
99978
100002
100043
99901.1
99894.5
99888.8
99885.2
99884.9
99889.5
99899.1
99916.6
99939.2
99970.8
99987.4
100005
99927.7
99919.9
99912
99905.6
99901.2
99899.9
99902.4
99910.9
99923.7
99947.1
99961.4
99982.6
99898.5
99900.2
99887.7
99879.6
99874.5
99868.9
99861.2
99851.9
99841.8
99831.5
99821.2
99811.8
99940.8
99914.7
99914
99913.7
99912.4
99908.4
99901.6
99892.9
99883
99872.4
99861.8
99852
99955.7
99941
99940.9
99939.8
99937.7
99933.8
99928
99920.5
99911.6
99901.7
99891.5
99881.6
99968.3
99963.2
99962.1
99960.1
99957.5
99953.9
99949
99942.7
99935.1
99926.2
99916.3
99906.1
99803.9
99798.2
99795.4
99796
99800.9
99811.9
99830.3
99858.7
99896.1
99946.3
99999.5
100120
99843.5
99837.5
99834.2
99834
99837.7
99846.8
99862.2
99886.7
99918
99959
99987.4
100033
99873.1
99867.1
99863.4
99862.2
99864
99870
99880.7
99898.8
99922.3
99954.9
99974.7
99994.1
99897.3
99891.7
99888
99885.7
99884.9
99886.4
99890.4
99899.2
99911.5
99933.3
99948.1
99967.7
99956.3
99960.7
99964.6
99967.3
99968.9
99969.3
99968.5
99966.8
99964.4
99961.5
99958
99954.3
99958.6
99964.6
99970
99974.1
99977
99978.5
99978.7
99977.8
99976.1
99973.9
99971.5
99969.1
99959.9
99967
99973.1
99978.1
99981.6
99983.6
99984.3
99983.8
99982.4
99980.7
99979.2
99978.1
99960.5
99968.4
99975.1
99980.5
99984.2
99986.5
99987.3
99986.8
99985.6
99984.2
99983.1
99982.8
99950.9
99944.9
99938.9
99933.4
99928.8
99925.7
99924.6
99926.5
99930.6
99943.1
99951.4
99965.2
99968.4
99964.4
99961.2
99958.3
99956
99954.5
99953.9
99954.9
99957.2
99959.8
99960.3
99961.9
99980.8
99978
99976.4
99975.2
99974.2
99973.4
99972.5
99971.3
99970.1
99968.2
99964
99959.4
99990.7
99987.8
99986.6
99986
99985.4
99984.3
99982.4
99979.5
99975.5
99970.4
99963.5
99956.2
99965.7
99964.6
99962.1
99958.7
99954.7
99950.2
99945
99939.3
99932.8
99924.3
99915.4
99905.9
99958.1
99954.3
99949.7
99944.7
99939.5
99933.9
99928
99921.6
99914.8
99908.5
99901.7
99893.6
99952.2
99946.2
99940.4
99934.7
99929.1
99923.5
99917.9
99912.2
99906.4
99900.7
99895.1
99887.8
99947.9
99941
99934.7
99928.8
99923.3
99918.1
99912.9
99907.8
99902.7
99897.6
99892.9
99885.7
99897.3
99892.1
99889.4
99888.1
99888.2
99889.8
99893
99899.2
99908.1
99922.9
99935.5
99952.1
99885.3
99880.9
99879.5
99879.8
99881.6
99885.2
99890.8
99899.3
99910.6
99926
99939
99952.1
99878.8
99875.1
99874.4
99875.4
99878
99882.4
99889.1
99898.5
99910.7
99925.6
99939.5
99952
99876
99872.8
99872.4
99873.6
99876.3
99881
99887.9
99897.6
99909.9
99924.5
99938.6
99951.3
99956.3
99960.7
99964.6
99967.3
99968.9
99969.3
99968.5
99966.8
99964.4
99961.5
99958
99954.3
99958.6
99964.6
99970
99974.1
99977
99978.5
99978.7
99977.8
99976.1
99973.9
99971.5
99969.1
99959.9
99967
99973.1
99978.1
99981.6
99983.6
99984.3
99983.8
99982.4
99980.7
99979.2
99978.1
99960.5
99968.4
99975.1
99980.5
99984.2
99986.5
99987.3
99986.8
99985.6
99984.2
99983.1
99982.8
99950.9
99944.9
99938.9
99933.4
99928.8
99925.7
99924.6
99926.5
99930.6
99943.1
99951.4
99965.2
99968.4
99964.4
99961.2
99958.3
99956
99954.5
99953.9
99954.9
99957.2
99959.8
99960.3
99961.9
99980.8
99978
99976.4
99975.2
99974.2
99973.4
99972.5
99971.3
99970.1
99968.2
99964
99959.4
99990.7
99987.8
99986.6
99986
99985.4
99984.3
99982.4
99979.5
99975.5
99970.4
99963.5
99956.2
99965.7
99964.6
99962.1
99958.7
99954.7
99950.2
99945
99939.3
99932.8
99924.3
99915.4
99905.9
99958.1
99954.3
99949.7
99944.7
99939.5
99933.9
99928
99921.6
99914.8
99908.5
99901.7
99893.6
99952.2
99946.2
99940.4
99934.7
99929.1
99923.5
99917.9
99912.2
99906.4
99900.7
99895.1
99887.8
99947.9
99941
99934.7
99928.8
99923.3
99918.1
99912.9
99907.8
99902.7
99897.6
99892.9
99885.7
99897.3
99892.1
99889.4
99888.1
99888.2
99889.8
99893
99899.2
99908.1
99922.9
99935.5
99952.1
99885.3
99880.9
99879.5
99879.8
99881.6
99885.2
99890.8
99899.3
99910.6
99926
99939
99952.1
99878.8
99875.1
99874.4
99875.4
99878
99882.4
99889.1
99898.5
99910.7
99925.6
99939.5
99952
99876
99872.8
99872.4
99873.6
99876.3
99881
99887.9
99897.6
99909.9
99924.5
99938.6
99951.3
99960.9
99969.4
99976.6
99982.1
99986
99988.2
99988.9
99988.5
99987.1
99985.4
99983
99980.8
99961.2
99970.2
99977.6
99983.3
99987.1
99989.3
99989.9
99989.3
99987.8
99985.8
99982.9
99983.4
99961.4
99970.9
99978.5
99984.2
99988
99990
99990.5
99989.7
99988
99986
99983.4
99984.3
99961.7
99971.5
99979.3
99985
99988.7
99990.5
99990.8
99989.8
99988
99986
99984.1
99984.8
99961.9
99972
99979.9
99985.6
99989.3
99990.9
99990.9
99989.8
99987.9
99986
99984.5
99985.1
99962.1
99972.5
99980.6
99986.3
99989.7
99991.2
99991
99989.7
99987.8
99985.9
99984.7
99985.2
99962.4
99973
99981.2
99986.8
99990.2
99991.4
99991
99989.5
99987.6
99985.8
99984.9
99985.3
99962.7
99973.6
99981.8
99987.4
99990.6
99991.6
99990.9
99989.3
99987.3
99985.7
99984.9
99985.2
99963.1
99974.2
99982.5
99988
99991
99991.8
99990.9
99989.1
99987
99985.5
99984.9
99985.1
99963.5
99974.9
99983.2
99988.7
99991.5
99992
99990.8
99988.8
99986.7
99985.3
99984.9
99985.1
99964.1
99975.6
99984
99989.4
99992
99992.2
99990.8
99988.6
99986.4
99985
99984.8
99985.1
99964.9
99976.8
99985.2
99990.4
99992.6
99992.3
99990.4
99987.9
99985.7
99984.6
99984.8
99985.2
100001
99995.6
99993.3
99992.7
99991.8
99990.1
99987.2
99982.8
99976.9
99969.9
99961.5
99953.1
100002
99999.6
99997.3
99996.3
99995
99992.6
99988.7
99983.2
99976.2
99968.2
99959.3
99950.8
100003
100001
99999.1
99997.8
99995.9
99992.7
99988
99981.8
99974.3
99966
99957.3
99949.1
100003
100001
99999.5
99997.8
99995.2
99991.3
99986
99979.3
99971.7
99963.6
99955.6
99948.2
100003
100001
99999
99996.8
99993.6
99989
99983.2
99976.4
99968.9
99961.4
99954.2
99947.7
100003
99999.7
99998
99995.2
99991.3
99986.2
99980
99973.2
99966.2
99959.4
99953.1
99947.6
100002
99998.5
99996.6
99993.1
99988.6
99983
99976.7
99970.1
99963.6
99957.5
99952.2
99947.8
100001
99997.3
99995
99990.8
99985.8
99979.8
99973.4
99967
99961.1
99955.9
99951.6
99948.1
99999.8
99996
99993.2
99988.4
99982.9
99976.6
99970.2
99964.2
99958.8
99954.4
99951
99948.4
99998.7
99994.7
99991.5
99986.2
99980.2
99973.7
99967.3
99961.6
99956.8
99953.1
99950.5
99948.7
99998
99993.8
99990
99984.2
99977.9
99971.2
99964.9
99959.4
99955.1
99952.1
99950
99948.9
99996.6
99991.4
99987.1
99980.4
99973.6
99966.6
99960.3
99955.3
99951.7
99949.6
99948.8
99948.7
99944.7
99937.7
99931.4
99925.7
99920.5
99915.6
99910.9
99906.3
99901.7
99896.8
99892.4
99883.1
99942.7
99936
99930
99924.7
99919.8
99915.3
99911
99906.7
99902.5
99897.7
99894.1
99885.2
99941.8
99935.5
99930
99925.2
99920.7
99916.5
99912.5
99908.5
99904.6
99899.8
99897
99887.9
99941.6
99936
99931.2
99926.8
99922.7
99918.8
99915
99911.1
99907.3
99902.5
99900.3
99890.9
99942.1
99937.3
99933
99929.1
99925.4
99921.7
99918
99914.2
99910.4
99905.6
99903.6
99894
99942.9
99938.9
99935.3
99931.9
99928.5
99925
99921.4
99917.4
99913.7
99908.7
99906.7
99897.2
99944
99940.8
99937.8
99934.9
99931.8
99928.4
99924.8
99920.8
99916.9
99911.8
99909.7
99900.5
99945.2
99942.7
99940.3
99937.8
99935
99931.8
99928.3
99924.1
99920.1
99914.9
99912.4
99903.7
99946.4
99944.6
99942.8
99940.7
99938.2
99935.2
99931.6
99927.5
99923.3
99917.9
99915.1
99906.9
99947.4
99946.3
99945
99943.3
99941.1
99938.3
99934.9
99930.7
99926.4
99920.8
99917.7
99909.9
99948.3
99947.7
99946.9
99945.5
99943.6
99940.9
99937.5
99933.2
99928.7
99922.9
99919.3
99912.1
99949
99949.4
99949.4
99948.9
99947.6
99945.5
99942.5
99938.4
99934
99927.6
99923.7
99915.8
99876.7
99872.5
99871.5
99872.6
99875.2
99879.9
99886.9
99896.7
99909.1
99923.4
99937.7
99950.7
99874.2
99872.7
99871.3
99872
99874.5
99879
99886.1
99895.9
99908.2
99922.5
99937
99950.3
99873.5
99872.7
99871.2
99871.6
99873.8
99878.2
99885.2
99895
99907.4
99921.8
99936.4
99950
99872.8
99872.5
99871
99871.3
99873.2
99877.5
99884.4
99894.1
99906.6
99921
99935.9
99949.8
99872.3
99872.2
99870.9
99871
99872.7
99876.7
99883.5
99893.2
99905.8
99920.3
99935.4
99949.6
99872.1
99872
99870.8
99870.7
99872.1
99875.9
99882.5
99892.2
99904.9
99919.6
99934.9
99949.5
99871.9
99871.9
99870.8
99870.4
99871.6
99875.1
99881.5
99891.2
99903.9
99918.8
99934.5
99949.4
99871.8
99871.8
99870.7
99870.2
99871
99874.2
99880.4
99890
99902.8
99918
99934
99949.3
99871.9
99871.7
99870.7
99869.9
99870.4
99873.3
99879.2
99888.7
99901.7
99917.2
99933.6
99949.3
99871.9
99871.8
99870.8
99869.7
99869.8
99872.2
99877.9
99887.3
99900.4
99916.3
99933.2
99949.4
99872
99871.9
99870.8
99869.5
99869.2
99871.2
99876.6
99885.9
99899.3
99915.6
99932.9
99949.6
99871.9
99872.1
99871.3
99869.8
99868.7
99869.8
99874.3
99883.3
99896.8
99913.7
99932.2
99949.8
99960.9
99969.4
99976.6
99982.1
99986
99988.2
99988.9
99988.5
99987.1
99985.4
99983
99980.8
99961.2
99970.2
99977.6
99983.3
99987.1
99989.3
99989.9
99989.3
99987.8
99985.8
99982.9
99983.4
99961.4
99970.9
99978.5
99984.2
99988
99990
99990.5
99989.7
99988
99986
99983.4
99984.3
99961.7
99971.5
99979.3
99985
99988.7
99990.5
99990.8
99989.8
99988
99986
99984.1
99984.8
99961.9
99972
99979.9
99985.6
99989.3
99990.9
99990.9
99989.8
99987.9
99986
99984.5
99985.1
99962.1
99972.5
99980.6
99986.3
99989.7
99991.2
99991
99989.7
99987.8
99985.9
99984.7
99985.2
99962.4
99973
99981.2
99986.8
99990.2
99991.4
99991
99989.5
99987.6
99985.8
99984.9
99985.3
99962.7
99973.6
99981.8
99987.4
99990.6
99991.6
99990.9
99989.3
99987.3
99985.7
99984.9
99985.2
99963.1
99974.2
99982.5
99988
99991
99991.8
99990.9
99989
99987
99985.5
99984.9
99985.1
99963.5
99974.9
99983.2
99988.7
99991.5
99992
99990.8
99988.8
99986.7
99985.3
99984.9
99985.1
99964.1
99975.6
99984
99989.4
99992
99992.2
99990.8
99988.6
99986.4
99985
99984.8
99985.1
99964.9
99976.8
99985.2
99990.4
99992.6
99992.3
99990.4
99987.9
99985.7
99984.6
99984.8
99985.2
100001
99995.6
99993.3
99992.7
99991.8
99990.1
99987.2
99982.8
99976.9
99969.9
99961.5
99953.1
100002
99999.6
99997.3
99996.3
99995
99992.6
99988.7
99983.2
99976.2
99968.2
99959.3
99950.8
100003
100001
99999.1
99997.8
99995.9
99992.7
99988
99981.8
99974.3
99966
99957.3
99949.1
100003
100001
99999.5
99997.8
99995.2
99991.3
99986
99979.3
99971.7
99963.6
99955.6
99948.2
100003
100001
99999
99996.8
99993.6
99989
99983.2
99976.4
99968.9
99961.4
99954.2
99947.7
100003
99999.7
99998
99995.2
99991.3
99986.2
99980
99973.2
99966.2
99959.4
99953.1
99947.6
100002
99998.5
99996.6
99993.1
99988.6
99983
99976.7
99970.1
99963.6
99957.5
99952.2
99947.8
100001
99997.3
99995
99990.8
99985.8
99979.8
99973.4
99967
99961.1
99955.9
99951.6
99948.1
99999.8
99996
99993.2
99988.4
99982.9
99976.6
99970.2
99964.2
99958.8
99954.4
99951
99948.4
99998.7
99994.7
99991.5
99986.2
99980.2
99973.7
99967.3
99961.6
99956.8
99953.1
99950.5
99948.7
99998
99993.8
99990
99984.2
99977.9
99971.2
99964.9
99959.4
99955.1
99952.1
99950
99948.9
99996.6
99991.4
99987.1
99980.4
99973.6
99966.6
99960.3
99955.3
99951.7
99949.6
99948.8
99948.7
99944.7
99937.7
99931.4
99925.7
99920.5
99915.6
99910.9
99906.3
99901.7
99896.8
99892.4
99883.1
99942.7
99936
99930
99924.7
99919.8
99915.3
99911
99906.7
99902.5
99897.7
99894.1
99885.2
99941.8
99935.5
99930
99925.2
99920.7
99916.5
99912.5
99908.5
99904.6
99899.8
99897
99887.9
99941.6
99936
99931.2
99926.8
99922.7
99918.8
99915
99911.1
99907.3
99902.5
99900.3
99890.9
99942.1
99937.3
99933
99929.1
99925.4
99921.7
99918
99914.2
99910.4
99905.6
99903.6
99894
99942.9
99938.9
99935.3
99931.9
99928.5
99925
99921.4
99917.4
99913.7
99908.7
99906.7
99897.2
99944
99940.8
99937.8
99934.8
99931.8
99928.4
99924.8
99920.8
99916.9
99911.8
99909.6
99900.5
99945.2
99942.7
99940.3
99937.8
99935
99931.8
99928.2
99924.1
99920.1
99914.9
99912.4
99903.7
99946.4
99944.6
99942.8
99940.7
99938.2
99935.2
99931.6
99927.5
99923.3
99917.9
99915.1
99906.9
99947.4
99946.3
99945
99943.3
99941.1
99938.3
99934.9
99930.7
99926.4
99920.8
99917.7
99909.9
99948.3
99947.7
99946.9
99945.5
99943.6
99940.9
99937.5
99933.2
99928.7
99922.9
99919.3
99912.1
99949
99949.4
99949.4
99948.9
99947.6
99945.5
99942.5
99938.4
99934
99927.6
99923.7
99915.8
99876.7
99872.5
99871.5
99872.6
99875.2
99879.9
99886.9
99896.7
99909.1
99923.4
99937.7
99950.7
99874.2
99872.7
99871.3
99872
99874.5
99879
99886.1
99895.9
99908.2
99922.5
99937
99950.3
99873.5
99872.7
99871.2
99871.6
99873.8
99878.2
99885.2
99895
99907.4
99921.8
99936.4
99950
99872.8
99872.5
99871
99871.3
99873.2
99877.5
99884.4
99894.1
99906.6
99921
99935.9
99949.8
99872.3
99872.2
99870.9
99871
99872.7
99876.7
99883.5
99893.2
99905.8
99920.3
99935.4
99949.6
99872.1
99872
99870.8
99870.7
99872.1
99875.9
99882.5
99892.2
99904.9
99919.6
99934.9
99949.5
99871.9
99871.9
99870.8
99870.4
99871.6
99875.1
99881.5
99891.2
99903.9
99918.8
99934.5
99949.4
99871.8
99871.8
99870.7
99870.2
99871
99874.2
99880.4
99890
99902.8
99918
99934
99949.3
99871.9
99871.7
99870.7
99869.9
99870.4
99873.3
99879.2
99888.7
99901.7
99917.2
99933.6
99949.3
99871.9
99871.8
99870.8
99869.7
99869.8
99872.2
99877.9
99887.3
99900.4
99916.3
99933.2
99949.4
99872
99871.9
99870.8
99869.5
99869.2
99871.2
99876.6
99885.9
99899.3
99915.6
99932.9
99949.6
99871.9
99872.1
99871.3
99869.8
99868.7
99869.8
99874.3
99883.3
99896.8
99913.7
99932.2
99949.8
)
;

boundaryField
{
    rotor
    {
        type            zeroGradient;
    }
    stator
    {
        type            zeroGradient;
    }
    front
    {
        type            empty;
    }
    back
    {
        type            empty;
    }
}


// ************************************************************************* //
