/*--------------------------------*- C++ -*----------------------------------*\
| =========                 |                                                 |
| \\      /  F ield         | OpenFOAM: The Open Source CFD Toolbox           |
|  \\    /   O peration     | Version:  2212                                  |
|   \\  /    A nd           | Website:  www.openfoam.com                      |
|    \\/     M anipulation  |                                                 |
\*---------------------------------------------------------------------------*/
FoamFile
{
    version     2.0;
    format      ascii;
    arch        "LSB;label=32;scalar=64";
    class       surfaceScalarField;
    location    "0.04";
    object      phi;
}
// * * * * * * * * * * * * * * * * * * * * * * * * * * * * * * * * * * * * * //

dimensions      [1 0 -1 0 0 0 0];

oriented        oriented;

internalField   nonuniform List<scalar> 
5952
(
6.55481e-05
-6.55471e-05
0.000123511
-5.79622e-05
0.000154702
-3.11899e-05
0.000168132
-1.34291e-05
0.000166645
1.48781e-06
0.000131325
3.53216e-05
5.61369e-05
7.51888e-05
-8.14977e-05
0.000137636
-0.000294272
0.000212775
-0.000468424
0.000174153
-0.000597788
0.000129365
9.81036e-05
-0.000695891
5.21525e-05
-0.000117699
7.88591e-05
-8.46678e-05
7.24383e-05
-2.47682e-05
3.09715e-05
2.80386e-05
-5.41293e-05
8.65898e-05
-0.000187738
0.000168931
-0.000350177
0.000237628
-0.000474417
0.000261876
-0.000517654
0.000256013
-0.000555804
0.000212303
-0.00059488
0.000168442
0.000131123
-0.000627899
2.14821e-05
-0.00013918
1.44904e-05
-7.76751e-05
-2.72923e-05
1.70155e-05
-0.000112794
0.000113541
-0.000237687
0.000211484
-0.000349881
0.000281126
-0.00041669
0.000304439
-0.00045233
0.000297517
-0.000464701
0.000268385
-0.000476902
0.000224506
-0.000491194
0.000182735
0.00014231
-0.00050238
-3.50341e-05
-0.000104144
-8.02653e-05
-3.24427e-05
-0.000145348
8.20994e-05
-0.000225712
0.000193907
-0.000297909
0.000283682
-0.000340979
0.000324197
-0.000361629
0.00032509
-0.000369329
0.000305218
-0.000371208
0.000270265
-0.000373873
0.000227171
-0.000376105
0.000184968
0.000143348
-0.000377142
-5.95777e-05
-4.4565e-05
-0.000122267
3.02478e-05
-0.000183597
0.000143431
-0.000236138
0.000246449
-0.000267145
0.00031469
-0.000276544
0.000333597
-0.000275569
0.000324117
-0.00026771
0.00029736
-0.000259017
0.000261574
-0.000253185
0.000221339
-0.000249076
0.000180861
0.000140481
-0.000246208
-6.60417e-05
2.14782e-05
-0.000125491
8.96983e-05
-0.000172161
0.000190103
-0.000197496
0.000271785
-0.00020091
0.000318105
-0.000191681
0.000324368
-0.00017604
0.000308478
-0.000159524
0.000280845
-0.000145011
0.000247062
-0.000133792
0.000210122
-0.000125307
0.000172378
0.00013425
-0.000119075
-6.591e-05
8.73897e-05
-0.000116881
0.000140671
-0.000144424
0.000217647
-0.000145377
0.00027274
-0.000127633
0.000300363
-0.000102554
0.00029929
-7.65988e-05
0.000282524
-5.28337e-05
0.000257081
-3.26834e-05
0.000226913
-1.65724e-05
0.000194012
-4.00113e-06
0.000159808
0.000124692
5.55857e-06
-6.74765e-05
0.000154868
-0.00010416
0.000177357
-0.000110397
0.000223885
-8.97106e-05
0.000252054
-5.45447e-05
0.000265198
-1.65591e-05
0.000261306
1.91229e-05
0.000246843
5.0401e-05
0.000225805
7.66944e-05
0.000200621
9.81101e-05
0.000172598
0.000115238
0.000142682
0.000111262
0.000128669
-5.69651e-05
0.000211835
-8.26219e-05
0.000203015
-6.75657e-05
0.000208831
-2.9039e-05
0.000213529
2.01604e-05
0.000216
6.93986e-05
0.000212069
0.000114262
0.000201982
0.000153161
0.000186908
0.000185963
0.000167819
0.000213104
0.000145458
0.000235277
0.00012051
9.34082e-05
0.000253133
-6.04506e-05
0.000272287
-4.96647e-05
0.000192231
-4.67101e-06
0.000163839
5.21077e-05
0.000156752
0.000112955
0.000155155
0.000170613
0.000154413
0.000222126
0.00015047
0.000266665
0.000142371
0.000304487
0.000129999
0.000336242
0.000113705
0.000362689
9.4065e-05
7.16163e-05
0.000384482
7.66001e-06
0.000264629
5.6736e-05
0.000143157
0.000125018
9.55582e-05
0.000192832
8.89405e-05
0.000256292
9.16972e-05
0.000313468
9.72378e-05
0.000363904
0.000100036
0.000407791
9.84853e-05
0.000445675
9.21158e-05
0.000478185
8.11968e-05
0.000505953
6.62983e-05
4.81036e-05
0.000529468
0.000219246
4.53847e-05
0.000314378
4.80266e-05
0.000381319
2.86189e-05
0.000434064
3.61976e-05
0.000478339
4.7423e-05
0.00051828
5.72987e-05
0.000554992
6.33262e-05
0.00058863
6.48486e-05
0.000619217
6.15302e-05
0.000646768
5.36478e-05
0.0006714
4.16682e-05
0.000693161
2.63437e-05
-0.000764202
6.8312e-05
-0.000804891
4.0689e-05
-0.000821496
1.66064e-05
-0.000814725
-6.77021e-06
-0.000786616
-2.81091e-05
-0.000736069
-5.05457e-05
-0.000661513
-7.4556e-05
-0.000561127
-0.000100385
-0.000432755
-0.000128371
-0.000276667
-0.000156087
-0.000112019
-0.000164647
-0.000112019
-0.000650867
9.12807e-05
-0.000665379
5.52022e-05
-0.000670047
2.12745e-05
-0.00066562
-1.11955e-05
-0.000649927
-4.38018e-05
-0.000621328
-7.91437e-05
-0.000577927
-0.000117956
-0.000517314
-0.000160997
-0.00043651
-0.000209174
-0.000332756
-0.000259841
-0.00019759
-0.000299812
-0.000309608
-0.000511784
0.000100686
-0.000517666
6.10845e-05
-0.00051898
2.25898e-05
-0.000513995
-1.618e-05
-0.000500847
-5.69487e-05
-0.000478665
-0.000101325
-0.000445989
-0.000150631
-0.00040143
-0.000205555
-0.000343198
-0.000267405
-0.00026624
-0.000336799
-0.000159894
-0.000406156
-0.000469501
-0.000378358
0.000101903
-0.000378621
6.13489e-05
-0.000376538
2.05078e-05
-0.000370937
-2.17803e-05
-0.00036094
-6.69441e-05
-0.000345768
-0.000116496
-0.000324188
-0.000172211
-0.000295228
-0.000234513
-0.000256592
-0.00030604
-0.000203763
-0.000389627
-0.000124753
-0.000485166
-0.000594253
-0.000244377
0.000100073
-0.000242588
5.95612e-05
-0.000240081
1.80025e-05
-0.000236188
-2.5673e-05
-0.000230373
-7.27579e-05
-0.000222051
-0.000124817
-0.000210663
-0.000183598
-0.000194956
-0.00025022
-0.000172855
-0.000328139
-0.000141577
-0.000420905
-8.96184e-05
-0.000537123
-0.00068387
-0.000114655
9.56544e-05
-0.000111394
5.63007e-05
-0.000108812
1.54219e-05
-0.000106548
-2.79353e-05
-0.000104349
-7.49564e-05
-0.000102084
-0.00012708
-9.97298e-05
-0.000185951
-9.64869e-05
-0.000253462
-9.15844e-05
-0.000333041
-8.26089e-05
-0.000429879
-6.02307e-05
-0.000559501
-0.0007441
1.25803e-05
8.8634e-05
1.75151e-05
5.13672e-05
2.06267e-05
1.23117e-05
2.20016e-05
-2.93089e-05
2.15439e-05
-7.44974e-05
1.89923e-05
-0.000124527
1.40033e-05
-0.000180961
6.44442e-06
-0.000245902
-3.58354e-06
-0.000323012
-1.47345e-05
-0.000418727
-2.21811e-05
-0.000552053
-0.00076628
0.000138888
7.84162e-05
0.000146233
4.40238e-05
0.000150805
7.74062e-06
0.00015246
-3.0962e-05
0.000150777
-7.28134e-05
0.000145063
-0.000118812
0.000134339
-0.000170235
0.000117437
-0.000228998
9.30043e-05
-0.000298578
6.03896e-05
-0.000386111
2.2361e-05
-0.000514023
-0.000743918
0.000267173
6.43777e-05
0.000277684
3.35137e-05
0.000284668
7.58218e-07
0.000287814
-3.41061e-05
0.000286439
-7.14376e-05
0.000279457
-0.000111828
0.000265216
-0.000155994
0.000241501
-0.00020528
0.00020514
-0.000262216
0.000152533
-0.000333503
8.14003e-05
-0.000442889
-0.000662516
0.000402123
4.67385e-05
0.000415868
1.977e-05
0.000425649
-9.02151e-06
0.000431046
-3.9501e-05
0.000431191
-7.15808e-05
0.000424713
-0.000105349
0.000409396
-0.000140675
0.000382098
-0.00017798
0.000337674
-0.000217791
0.000269435
-0.000265262
0.000164833
-0.000338287
-0.000497682
0.000549113
2.7095e-05
0.000565049
3.83557e-06
0.000577111
-2.10825e-05
0.000584786
-4.71741e-05
0.000587073
-7.38666e-05
0.000582458
-0.000100732
0.000568433
-0.000126649
0.000541433
-0.000150978
0.000494691
-0.000171048
0.000419646
-0.000190215
0.000288381
-0.000207021
-0.000209299
0.000712158
8.09985e-06
0.000728331
-1.2336e-05
0.000741336
-3.40858e-05
0.000750529
-5.6366e-05
0.00075484
-7.81761e-05
0.000752737
-9.86269e-05
0.000741734
-0.000115645
0.000718614
-0.000127857
0.000676871
-0.000129304
0.000604295
-0.000117639
0.000452272
-5.49957e-05
0.000242975
6.08263e-05
-6.08253e-05
0.000116608
-5.57803e-05
0.000148105
-3.14968e-05
0.000160575
-1.24693e-05
0.000162186
-1.6098e-06
0.000138433
2.37538e-05
7.41465e-05
6.42881e-05
-3.57325e-05
0.00010988
-0.000235495
0.000199763
-0.000418837
0.000183343
-0.00055035
0.000131513
0.000102918
-0.000653268
5.06516e-05
-0.000111476
7.89181e-05
-8.40459e-05
7.67136e-05
-2.92914e-05
4.50275e-05
1.92177e-05
-2.53345e-05
6.87533e-05
-0.000142676
0.000141097
-0.000297604
0.000219216
-0.000438485
0.000250762
-0.000493401
0.00025468
-0.000527444
0.000217387
-0.00056715
0.00017122
0.000135628
-0.000599859
2.66091e-05
-0.000138084
2.70919e-05
-8.45276e-05
-4.45005e-06
2.25158e-06
-7.55189e-05
9.02877e-05
-0.000191211
0.000184447
-0.00031309
0.000262976
-0.000390044
0.000296172
-0.000431954
0.000292673
-0.000445799
0.000268526
-0.000455798
0.000227387
-0.000469647
0.00018507
0.000146152
-0.000480171
-2.55195e-05
-0.000112563
-6.09102e-05
-4.91356e-05
-0.000117192
5.85346e-05
-0.000193911
0.000167008
-0.000271846
0.000262382
-0.000322354
0.000313485
-0.000346122
0.000319941
-0.000355101
0.000301654
-0.000356738
0.000270164
-0.000358318
0.000228968
-0.000360471
0.000187224
0.000146771
-0.000361088
-5.1613e-05
-6.09485e-05
-0.000109046
8.29865e-06
-0.000168518
0.000118008
-0.00022351
0.000222001
-0.000259316
0.00029819
-0.000270047
0.000324217
-0.000267618
0.000317514
-0.000259513
0.000293549
-0.000249471
0.000260123
-0.000242144
0.000221641
-0.000237145
0.000182226
0.000143085
-0.000233457
-6.33568e-05
2.40993e-06
-0.00012147
6.64132e-05
-0.000169406
0.000165946
-0.00019716
0.000249757
-0.000201533
0.000302564
-0.000190841
0.000313526
-0.000173631
0.000300305
-0.000155482
0.000275401
-0.000139261
0.000243904
-0.000126497
0.000208878
-0.000116956
0.000172687
0.000136146
-0.000110016
-6.70509e-05
6.94625e-05
-0.000119757
0.000119121
-0.000149447
0.000195638
-0.00015164
0.000251951
-0.000133083
0.000284008
-0.000106098
0.000286542
-7.82968e-05
0.000272505
-5.26376e-05
0.000249743
-3.07258e-05
0.000221994
-1.3134e-05
0.000191288
4.65663e-07
0.000159088
0.000125992
1.06203e-05
-7.06274e-05
0.000140091
-0.000110588
0.000159083
-0.000119321
0.000204373
-9.97252e-05
0.000232356
-6.37972e-05
0.000248081
-2.41776e-05
0.000246924
1.331e-05
0.000235019
4.64389e-05
0.000216616
7.44146e-05
0.000194019
9.72126e-05
0.000168491
0.000115301
0.000141001
0.000112047
0.000129248
-6.12304e-05
0.000201324
-9.08965e-05
0.000188751
-7.87185e-05
0.000192197
-4.18631e-05
0.000195503
7.42512e-06
0.000198795
5.77849e-05
0.000196566
0.000104174
0.000188631
0.000144719
0.000176073
0.00017905
0.00015969
0.00020744
0.000140103
0.000230482
0.00011796
9.37394e-05
0.000248792
-6.53802e-05
0.000266706
-5.84414e-05
0.000181814
-1.70282e-05
0.000150785
3.74742e-05
0.000141002
9.77295e-05
0.000138541
0.000155853
0.000138445
0.000208317
0.000136169
0.000254012
0.000130379
0.000292992
0.000120711
0.000325738
0.000107359
0.00035289
9.08099e-05
7.15785e-05
0.000375053
3.2491e-06
0.000263459
4.68031e-05
0.000138262
0.000111779
8.5811e-05
0.000177399
7.53839e-05
0.00023985
7.60916e-05
0.000296692
8.16046e-05
0.000347217
8.56453e-05
0.0003915
8.60981e-05
0.000429966
8.22468e-05
0.000463099
7.4227e-05
0.00049136
6.25516e-05
4.77964e-05
0.000515143
0.000211686
5.17751e-05
0.000302291
4.76586e-05
0.000367485
2.06185e-05
0.000418691
2.41797e-05
0.000461322
3.34619e-05
0.000499892
4.30362e-05
0.00053569
4.98498e-05
0.000568921
5.28679e-05
0.000599536
5.16335e-05
0.000627405
4.63602e-05
0.000652403
3.75548e-05
0.000674436
2.57652e-05
-0.000724347
7.10799e-05
-0.000768629
4.42828e-05
-0.000788103
1.94749e-05
-0.000784454
-3.64899e-06
-0.000759174
-2.52789e-05
-0.000711957
-4.72168e-05
-0.00064056
-7.13961e-05
-0.000543684
-9.68748e-05
-0.000418738
-0.000124945
-0.000266385
-0.000152353
-0.000106089
-0.000160295
-0.000106088
-0.000623868
9.50903e-05
-0.000639022
5.94374e-05
-0.000644939
2.53922e-05
-0.000641717
-6.87022e-06
-0.000627992
-3.90022e-05
-0.000601368
-7.38405e-05
-0.000560503
-0.00011226
-0.000502486
-0.000154891
-0.000424637
-0.000202794
-0.000324055
-0.000252934
-0.000192351
-0.000291999
-0.000298438
-0.000490069
0.000104989
-0.000496437
6.58064e-05
-0.000498709
2.76656e-05
-0.000495068
-1.05103e-05
-0.000483497
-5.05728e-05
-0.000463154
-9.41823e-05
-0.000432545
-0.000142869
-0.000390458
-0.000196977
-0.000335056
-0.000258195
-0.000260982
-0.000327008
-0.000157686
-0.000395294
-0.000456123
-0.000361905
0.000105807
-0.000362106
6.60085e-05
-0.000360519
2.60788e-05
-0.000355837
-1.5191e-05
-0.000347127
-5.92813e-05
-0.000333609
-0.0001077
-0.000313936
-0.000162541
-0.000287054
-0.000223858
-0.000250597
-0.000294651
-0.000199591
-0.000378013
-0.000122271
-0.000472613
-0.000578393
-0.00023134
0.000103691
-0.000229708
6.4378e-05
-0.000227771
2.41426e-05
-0.000224812
-1.81483e-05
-0.000220245
-6.38473e-05
-0.000213396
-0.000114548
-0.000203724
-0.000172212
-0.000189783
-0.000237798
-0.000169412
-0.00031502
-0.000140055
-0.000407369
-8.96315e-05
-0.000523036
-0.000668023
-0.000105401
9.90768e-05
-0.000102381
6.13601e-05
-0.000100421
2.21837e-05
-9.91011e-05
-1.94674e-05
-9.81031e-05
-6.48441e-05
-9.71932e-05
-0.000115457
-9.63323e-05
-0.000173072
-9.45204e-05
-0.000239608
-9.08979e-05
-0.000318642
-8.29498e-05
-0.000415316
-6.0931e-05
-0.000545054
-0.000728953
1.7746e-05
9.19524e-05
2.23581e-05
5.67493e-05
2.47893e-05
1.97539e-05
2.51965e-05
-1.98733e-05
2.35595e-05
-6.32057e-05
1.97079e-05
-0.000111604
1.33905e-05
-0.000166753
4.64204e-06
-0.000230859
-6.26335e-06
-0.000307735
-1.78095e-05
-0.000403769
-2.4971e-05
-0.000537891
-0.000753923
0.00013951
8.1692e-05
0.000146479
4.97812e-05
0.000150334
1.59004e-05
0.000151015
-2.05523e-05
0.000148194
-6.03837e-05
0.00014128
-0.000104689
0.000129419
-0.00015489
0.000111625
-0.000213063
8.68005e-05
-0.00028291
5.46153e-05
-0.000371582
1.80763e-05
-0.000501351
-0.000735846
0.00026284
6.76455e-05
0.000272951
3.96712e-05
0.000279207
9.64659e-06
0.0002814
-2.27446e-05
0.000278963
-5.79447e-05
0.000270922
-9.66458e-05
0.000255766
-0.000139733
0.000231461
-0.000188756
0.000195113
-0.000246561
0.000143441
-0.000319909
7.49493e-05
-0.000432858
-0.000660895
0.000392662
5.00379e-05
0.000405988
2.63468e-05
0.000415046
5.90578e-07
0.000419538
-2.72351e-05
0.000418728
-5.71331e-05
0.000411385
-8.93015e-05
0.000395457
-0.000123804
0.000367986
-0.000161285
0.00032408
-0.000202652
0.000257289
-0.000253118
0.000156345
-0.000331912
-0.000504549
0.000534703
3.04799e-05
0.00055019
1.08609e-05
0.000561538
-1.07556e-05
0.000568377
-3.40722e-05
0.000569853
-5.86073e-05
0.000564624
-8.40718e-05
0.000550407
-0.000109585
0.000523815
-0.000134691
0.000478294
-0.00015713
0.000405404
-0.000180226
0.00027845
-0.000204957
-0.000226098
0.000693362
1.15557e-05
0.000709081
-4.8569e-06
0.000721377
-2.30498e-05
0.000729812
-4.2506e-05
0.000733517
-6.23106e-05
0.000731207
-8.17602e-05
0.000720726
-9.91021e-05
0.000699028
-0.000112992
0.000659746
-0.000117847
0.00059035
-0.000110829
0.000443765
-5.83699e-05
0.000217669
6.55475e-05
-6.55465e-05
0.00012351
-5.79619e-05
0.000154701
-3.119e-05
0.000168131
-1.34291e-05
0.000166645
1.48731e-06
0.000131326
3.53201e-05
5.61391e-05
7.51878e-05
-8.14932e-05
0.000137633
-0.000294267
0.000212774
-0.00046842
0.000174154
-0.000597785
0.000129366
9.81043e-05
-0.000695889
5.21524e-05
-0.000117698
7.88592e-05
-8.46678e-05
7.2439e-05
-2.47689e-05
3.09735e-05
2.80374e-05
-5.41258e-05
8.65877e-05
-0.000187734
0.000168929
-0.000350173
0.000237628
-0.000474415
0.000261876
-0.000517654
0.000256014
-0.000555803
0.000212305
-0.00059488
0.000168443
0.000131124
-0.000627899
2.14831e-05
-0.00013918
1.44926e-05
-7.76763e-05
-2.72886e-05
1.70133e-05
-0.000112789
0.000113539
-0.000237682
0.000211481
-0.000349878
0.000281126
-0.000416689
0.00030444
-0.00045233
0.000297518
-0.0004647
0.000268386
-0.000476902
0.000224507
-0.000491194
0.000182736
0.000142311
-0.00050238
-3.50323e-05
-0.000104146
-8.02617e-05
-3.24457e-05
-0.000145343
8.20961e-05
-0.000225708
0.000193904
-0.000297907
0.000283682
-0.000340978
0.000324198
-0.000361629
0.000325092
-0.000369329
0.000305219
-0.000371209
0.000270267
-0.000373873
0.000227172
-0.000376106
0.000184969
0.000143349
-0.000377142
-5.95761e-05
-4.45687e-05
-0.000122264
3.02439e-05
-0.000183595
0.000143428
-0.000236137
0.000246447
-0.000267145
0.000314691
-0.000276544
0.000333599
-0.00027557
0.000324119
-0.000267711
0.000297361
-0.000259018
0.000261575
-0.000253185
0.000221341
-0.000249077
0.000180862
0.000140481
-0.000246208
-6.6041e-05
2.14738e-05
-0.00012549
8.96942e-05
-0.000172161
0.000190101
-0.000197497
0.000271785
-0.000200912
0.000318107
-0.000191682
0.00032437
-0.000176041
0.000308479
-0.000159525
0.000280847
-0.000145012
0.000247063
-0.000133792
0.000210123
-0.000125308
0.000172378
0.000134251
-0.000119076
-6.59102e-05
8.73855e-05
-0.000116882
0.000140668
-0.000144425
0.000217645
-0.000145379
0.00027274
-0.000127635
0.000300364
-0.000102555
0.000299292
-7.65997e-05
0.000282525
-5.28344e-05
0.000257083
-3.26839e-05
0.000226914
-1.65728e-05
0.000194013
-4.00142e-06
0.000159808
0.000124692
5.55835e-06
-6.74772e-05
0.000154864
-0.000104162
0.000177354
-0.0001104
0.000223884
-8.97125e-05
0.000252054
-5.45462e-05
0.000265199
-1.65603e-05
0.000261307
1.91221e-05
0.000246845
5.04004e-05
0.000225806
7.6694e-05
0.000200622
9.81097e-05
0.000172599
0.000115237
0.000142682
0.000111262
0.000128669
-5.69663e-05
0.000211832
-8.2624e-05
0.000203013
-6.75679e-05
0.00020883
-2.90411e-05
0.000213529
2.01588e-05
0.000216001
6.93974e-05
0.00021207
0.000114261
0.000201982
0.00015316
0.000186908
0.000185963
0.00016782
0.000213104
0.000145459
0.000235277
0.000120511
9.34087e-05
0.000253132
-6.04519e-05
0.000272286
-4.96665e-05
0.00019223
-4.67307e-06
0.000163838
5.21058e-05
0.000156752
0.000112953
0.000155155
0.000170611
0.000154413
0.000222125
0.00015047
0.000266664
0.000142371
0.000304487
0.000129999
0.000336242
0.000113706
0.000362688
9.40656e-05
7.16168e-05
0.000384482
7.65924e-06
0.000264629
5.67346e-05
0.000143156
0.000125017
9.55576e-05
0.00019283
8.894e-05
0.00025629
9.1697e-05
0.000313467
9.72379e-05
0.000363902
0.000100037
0.00040779
9.84856e-05
0.000445674
9.21162e-05
0.000478184
8.11972e-05
0.000505953
6.62987e-05
4.8104e-05
0.000529467
0.000219246
4.53849e-05
0.000314377
4.80264e-05
0.000381318
2.86185e-05
0.000434062
3.61973e-05
0.000478338
4.74228e-05
0.000518279
5.72986e-05
0.000554991
6.33263e-05
0.000588629
6.48488e-05
0.000619217
6.15304e-05
0.000646767
5.36481e-05
0.000671399
4.16686e-05
0.000693161
2.6344e-05
-0.000764201
6.83126e-05
-0.00080489
4.06894e-05
-0.000821496
1.66067e-05
-0.000814725
-6.77003e-06
-0.000786615
-2.8109e-05
-0.000736069
-5.05456e-05
-0.000661513
-7.45559e-05
-0.000561127
-0.000100385
-0.000432755
-0.000128371
-0.000276667
-0.000156088
-0.000112019
-0.000164647
-0.000112019
-0.000650867
9.12814e-05
-0.000665379
5.52027e-05
-0.000670046
2.12749e-05
-0.00066562
-1.11953e-05
-0.000649927
-4.38016e-05
-0.000621328
-7.91436e-05
-0.000577927
-0.000117956
-0.000517314
-0.000160997
-0.00043651
-0.000209174
-0.000332756
-0.000259841
-0.00019759
-0.000299812
-0.000309608
-0.000511784
0.000100687
-0.000517666
6.10851e-05
-0.00051898
2.25902e-05
-0.000513995
-1.61797e-05
-0.000500847
-5.69485e-05
-0.000478665
-0.000101325
-0.000445989
-0.000150631
-0.00040143
-0.000205555
-0.000343198
-0.000267405
-0.00026624
-0.000336799
-0.000159894
-0.000406156
-0.000469501
-0.000378358
0.000101904
-0.000378621
6.13495e-05
-0.000376538
2.05082e-05
-0.000370937
-2.178e-05
-0.000360941
-6.69439e-05
-0.000345769
-0.000116496
-0.000324188
-0.000172211
-0.000295228
-0.000234513
-0.000256592
-0.00030604
-0.000203763
-0.000389627
-0.000124753
-0.000485166
-0.000594253
-0.000244377
0.000100074
-0.000242588
5.95616e-05
-0.000240082
1.80028e-05
-0.000236188
-2.56727e-05
-0.000230373
-7.27577e-05
-0.000222051
-0.000124817
-0.000210664
-0.000183598
-0.000194956
-0.00025022
-0.000172856
-0.00032814
-0.000141577
-0.000420905
-8.96184e-05
-0.000537124
-0.00068387
-0.000114656
9.5655e-05
-0.000111394
5.63011e-05
-0.000108812
1.54223e-05
-0.000106549
-2.7935e-05
-0.000104349
-7.49562e-05
-0.000102084
-0.00012708
-9.97299e-05
-0.000185951
-9.6487e-05
-0.000253462
-9.15845e-05
-0.000333041
-8.2609e-05
-0.000429879
-6.02308e-05
-0.000559501
-0.0007441
1.25801e-05
8.86346e-05
1.75149e-05
5.13677e-05
2.06265e-05
1.2312e-05
2.20015e-05
-2.93086e-05
2.15437e-05
-7.44972e-05
1.89921e-05
-0.000124527
1.40031e-05
-0.000180961
6.44427e-06
-0.000245902
-3.58366e-06
-0.000323012
-1.47345e-05
-0.000418727
-2.21811e-05
-0.000552053
-0.00076628
0.000138888
7.84167e-05
0.000146233
4.40242e-05
0.000150805
7.74096e-06
0.00015246
-3.09618e-05
0.000150777
-7.28132e-05
0.000145063
-0.000118812
0.000134339
-0.000170235
0.000117436
-0.000228998
9.30041e-05
-0.000298578
6.03895e-05
-0.000386111
2.2361e-05
-0.000514023
-0.000743918
0.000267172
6.43782e-05
0.000277684
3.35141e-05
0.000284668
7.58546e-07
0.000287814
-3.41059e-05
0.000286439
-7.14374e-05
0.000279456
-0.000111828
0.000265216
-0.000155994
0.0002415
-0.00020528
0.00020514
-0.000262216
0.000152533
-0.000333503
8.14003e-05
-0.00044289
-0.000662517
0.000402123
4.6739e-05
0.000415868
1.97704e-05
0.000425649
-9.02121e-06
0.000431046
-3.95008e-05
0.00043119
-7.15806e-05
0.000424713
-0.000105349
0.000409396
-0.000140675
0.000382098
-0.00017798
0.000337674
-0.000217791
0.000269435
-0.000265262
0.000164833
-0.000338287
-0.000497682
0.000549112
2.70954e-05
0.000565048
3.83589e-06
0.000577111
-2.10823e-05
0.000584786
-4.71739e-05
0.000587073
-7.38665e-05
0.000582458
-0.000100732
0.000568433
-0.000126649
0.000541433
-0.000150978
0.000494691
-0.000171048
0.000419646
-0.000190216
0.000288381
-0.000207021
-0.000209299
0.000712158
8.10013e-06
0.000728331
-1.23358e-05
0.000741336
-3.40856e-05
0.000750529
-5.63658e-05
0.00075484
-7.8176e-05
0.000752736
-9.86268e-05
0.000741734
-0.000115645
0.000718614
-0.000127857
0.000676871
-0.000129304
0.000604295
-0.000117639
0.000452272
-5.4996e-05
0.000242974
6.08263e-05
-6.08253e-05
0.000116608
-5.57803e-05
0.000148105
-3.14968e-05
0.000160575
-1.24693e-05
0.000162186
-1.60981e-06
0.000138433
2.37537e-05
7.41466e-05
6.4288e-05
-3.57324e-05
0.00010988
-0.000235495
0.000199763
-0.000418837
0.000183343
-0.00055035
0.000131514
0.000102918
-0.000653268
5.06516e-05
-0.000111476
7.89182e-05
-8.40459e-05
7.67137e-05
-2.92914e-05
4.50277e-05
1.92177e-05
-2.53343e-05
6.87533e-05
-0.000142676
0.000141097
-0.000297604
0.000219216
-0.000438485
0.000250762
-0.000493401
0.00025468
-0.000527444
0.000217387
-0.00056715
0.00017122
0.000135628
-0.000599859
2.66092e-05
-0.000138084
2.7092e-05
-8.45277e-05
-4.44984e-06
2.25147e-06
-7.55186e-05
9.02875e-05
-0.000191211
0.000184447
-0.000313089
0.000262976
-0.000390044
0.000296172
-0.000431954
0.000292674
-0.000445799
0.000268526
-0.000455798
0.000227387
-0.000469647
0.00018507
0.000146153
-0.000480171
-2.55194e-05
-0.000112563
-6.09101e-05
-4.91358e-05
-0.000117192
5.85344e-05
-0.000193911
0.000167008
-0.000271845
0.000262382
-0.000322354
0.000313485
-0.000346122
0.000319941
-0.000355101
0.000301654
-0.000356738
0.000270164
-0.000358318
0.000228968
-0.000360471
0.000187224
0.000146771
-0.000361088
-5.16129e-05
-6.09487e-05
-0.000109046
8.29846e-06
-0.000168518
0.000118008
-0.00022351
0.000222001
-0.000259316
0.00029819
-0.000270047
0.000324217
-0.000267618
0.000317514
-0.000259513
0.00029355
-0.000249471
0.000260123
-0.000242144
0.000221641
-0.000237145
0.000182226
0.000143085
-0.000233457
-6.33568e-05
2.40974e-06
-0.00012147
6.6413e-05
-0.000169406
0.000165946
-0.00019716
0.000249756
-0.000201533
0.000302564
-0.000190841
0.000313526
-0.000173631
0.000300305
-0.000155482
0.000275401
-0.000139261
0.000243904
-0.000126497
0.000208878
-0.000116956
0.000172687
0.000136146
-0.000110016
-6.70509e-05
6.94623e-05
-0.000119757
0.00011912
-0.000149447
0.000195638
-0.00015164
0.000251951
-0.000133083
0.000284008
-0.000106098
0.000286542
-7.82967e-05
0.000272505
-5.26375e-05
0.000249743
-3.07257e-05
0.000221994
-1.31339e-05
0.000191288
4.65745e-07
0.000159088
0.000125993
1.06203e-05
-7.06274e-05
0.000140091
-0.000110588
0.000159083
-0.000119321
0.000204373
-9.97253e-05
0.000232356
-6.37972e-05
0.000248081
-2.41776e-05
0.000246924
1.33101e-05
0.000235019
4.6439e-05
0.000216616
7.44147e-05
0.00019402
9.72127e-05
0.000168491
0.000115301
0.000141001
0.000112047
0.000129248
-6.12304e-05
0.000201324
-9.08965e-05
0.000188751
-7.87185e-05
0.000192196
-4.18631e-05
0.000195502
7.4251e-06
0.000198795
5.77849e-05
0.000196566
0.000104174
0.000188631
0.000144719
0.000176073
0.00017905
0.00015969
0.00020744
0.000140103
0.000230483
0.00011796
9.37395e-05
0.000248792
-6.53801e-05
0.000266706
-5.84414e-05
0.000181814
-1.70282e-05
0.000150785
3.74742e-05
0.000141002
9.77295e-05
0.000138541
0.000155853
0.000138445
0.000208317
0.000136169
0.000254012
0.000130379
0.000292992
0.000120711
0.000325738
0.000107359
0.00035289
9.081e-05
7.15786e-05
0.000375053
3.24914e-06
0.000263458
4.68031e-05
0.000138262
0.000111779
8.58108e-05
0.000177399
7.53838e-05
0.00023985
7.60915e-05
0.000296692
8.16046e-05
0.000347217
8.56454e-05
0.0003915
8.60982e-05
0.000429966
8.22469e-05
0.000463099
7.42271e-05
0.000491359
6.25517e-05
4.77965e-05
0.000515143
0.000211685
5.17749e-05
0.000302291
4.76585e-05
0.000367485
2.06184e-05
0.000418691
2.41796e-05
0.000461322
3.34618e-05
0.000499892
4.30362e-05
0.000535689
4.98498e-05
0.000568921
5.28679e-05
0.000599536
5.16335e-05
0.000627405
4.63603e-05
0.000652403
3.75549e-05
0.000674436
2.57653e-05
-0.000724347
7.10799e-05
-0.000768629
4.42828e-05
-0.000788103
1.9475e-05
-0.000784454
-3.64898e-06
-0.000759174
-2.52789e-05
-0.000711957
-4.72168e-05
-0.00064056
-7.13961e-05
-0.000543684
-9.68748e-05
-0.000418738
-0.000124945
-0.000266385
-0.000152353
-0.000106089
-0.000160295
-0.000106088
-0.000623868
9.50904e-05
-0.000639022
5.94375e-05
-0.000644939
2.53922e-05
-0.000641717
-6.87018e-06
-0.000627993
-3.90022e-05
-0.000601368
-7.38405e-05
-0.000560503
-0.00011226
-0.000502486
-0.000154891
-0.000424637
-0.000202794
-0.000324055
-0.000252934
-0.000192351
-0.000291999
-0.000298438
-0.000490069
0.000104989
-0.000496437
6.58064e-05
-0.000498709
2.76656e-05
-0.000495068
-1.05103e-05
-0.000483497
-5.05727e-05
-0.000463154
-9.41823e-05
-0.000432545
-0.000142869
-0.000390458
-0.000196977
-0.000335056
-0.000258195
-0.000260982
-0.000327008
-0.000157686
-0.000395294
-0.000456123
-0.000361905
0.000105808
-0.000362106
6.60086e-05
-0.000360519
2.60788e-05
-0.000355837
-1.51909e-05
-0.000347127
-5.92813e-05
-0.000333609
-0.0001077
-0.000313936
-0.000162541
-0.000287054
-0.000223858
-0.000250597
-0.000294651
-0.000199591
-0.000378013
-0.000122271
-0.000472614
-0.000578393
-0.00023134
0.000103691
-0.000229708
6.4378e-05
-0.000227771
2.41427e-05
-0.000224812
-1.81483e-05
-0.000220245
-6.38472e-05
-0.000213396
-0.000114548
-0.000203724
-0.000172212
-0.000189783
-0.000237798
-0.000169412
-0.00031502
-0.000140055
-0.000407369
-8.96315e-05
-0.000523036
-0.000668024
-0.000105401
9.90769e-05
-0.000102381
6.13602e-05
-0.000100421
2.21838e-05
-9.9101e-05
-1.94673e-05
-9.81031e-05
-6.4844e-05
-9.71932e-05
-0.000115457
-9.63323e-05
-0.000173072
-9.45205e-05
-0.000239608
-9.08979e-05
-0.000318642
-8.29499e-05
-0.000415316
-6.09311e-05
-0.000545054
-0.000728954
1.77461e-05
9.19525e-05
2.23582e-05
5.67494e-05
2.47894e-05
1.9754e-05
2.51966e-05
-1.98732e-05
2.35595e-05
-6.32056e-05
1.97079e-05
-0.000111604
1.33905e-05
-0.000166753
4.64203e-06
-0.000230859
-6.26338e-06
-0.000307735
-1.78095e-05
-0.000403769
-2.49711e-05
-0.000537891
-0.000753924
0.00013951
8.16921e-05
0.000146479
4.97813e-05
0.000150334
1.59005e-05
0.000151015
-2.05522e-05
0.000148194
-6.03836e-05
0.00014128
-0.000104688
0.000129419
-0.00015489
0.000111625
-0.000213063
8.68005e-05
-0.00028291
5.46152e-05
-0.000371582
1.80763e-05
-0.000501351
-0.000735846
0.00026284
6.76457e-05
0.000272951
3.96713e-05
0.000279207
9.6467e-06
0.0002814
-2.27445e-05
0.000278963
-5.79446e-05
0.000270922
-9.66457e-05
0.000255766
-0.000139733
0.000231461
-0.000188756
0.000195113
-0.000246561
0.000143441
-0.000319909
7.49493e-05
-0.000432858
-0.000660896
0.000392662
5.0038e-05
0.000405988
2.63469e-05
0.000415046
5.90695e-07
0.000419538
-2.7235e-05
0.000418728
-5.7133e-05
0.000411385
-8.93014e-05
0.000395457
-0.000123804
0.000367986
-0.000161284
0.00032408
-0.000202652
0.000257289
-0.000253118
0.000156345
-0.000331912
-0.000504549
0.000534703
3.048e-05
0.00055019
1.0861e-05
0.000561538
-1.07555e-05
0.000568377
-3.40721e-05
0.000569853
-5.86072e-05
0.000564624
-8.40717e-05
0.000550407
-0.000109585
0.000523815
-0.000134691
0.000478294
-0.00015713
0.000405404
-0.000180226
0.00027845
-0.000204957
-0.000226098
0.000693362
1.15558e-05
0.000709081
-4.85682e-06
0.000721377
-2.30497e-05
0.000729812
-4.25059e-05
0.000733517
-6.23106e-05
0.000731207
-8.17601e-05
0.000720726
-9.9102e-05
0.000699028
-0.000112992
0.000659747
-0.000117847
0.00059035
-0.000110829
0.000443765
-5.837e-05
0.000217668
0.000818102
9.52435e-05
-0.00086796
0.000798797
6.73334e-05
0.000774842
5.25756e-05
0.000764516
4.65242e-05
0.000765422
4.65189e-05
0.000774293
4.84291e-05
0.000788198
4.94222e-05
0.000804929
4.81197e-05
0.000822913
4.35472e-05
0.000841091
3.54715e-05
0.000858897
2.38642e-05
9.41527e-06
0.000875827
0.00108721
9.14967e-05
-0.00108347
0.00107615
7.84025e-05
0.00105998
6.87411e-05
0.00104518
6.13322e-05
0.00103513
5.65686e-05
0.0010305
5.30587e-05
0.00103069
4.92356e-05
0.00103471
4.40963e-05
0.00104159
3.66653e-05
0.00105051
2.6562e-05
0.0010609
1.34709e-05
-1.75874e-06
0.00107208
0.001284
8.37033e-05
-0.0012762
0.00128391
7.84917e-05
0.00127957
7.30847e-05
0.00127318
6.77206e-05
0.00126681
6.29393e-05
0.00126175
5.81171e-05
0.00125864
5.23488e-05
0.0012577
4.50376e-05
0.00125893
3.54377e-05
0.00126225
2.3245e-05
0.00126758
8.13949e-06
-8.65233e-06
0.00127448
0.00147294
-0.00146856
7.93249e-05
0.00147588
7.55503e-05
0.00147681
7.21582e-05
0.001476
6.8533e-05
0.00147411
6.48329e-05
0.00147186
6.03716e-05
0.00146988
5.43254e-05
0.00146872
4.61966e-05
0.00146875
3.54086e-05
0.00147028
2.17154e-05
0.00147352
4.8998e-06
0.00147879
-1.39197e-05