/*--------------------------------*- C++ -*----------------------------------*\
| =========                 |                                                 |
| \\      /  F ield         | OpenFOAM: The Open Source CFD Toolbox           |
|  \\    /   O peration     | Version:  2212                                  |
|   \\  /    A nd           | Website:  www.openfoam.com                      |
|    \\/     M anipulation  |                                                 |
\*---------------------------------------------------------------------------*/
FoamFile
{
    version     2.0;
    format      ascii;
    arch        "LSB;label=32;scalar=64";
    class       surfaceScalarField;
    location    "0.04";
    object      phi;
}
// * * * * * * * * * * * * * * * * * * * * * * * * * * * * * * * * * * * * * //

dimensions      [1 0 -1 0 0 0 0];

oriented        oriented;

internalField   nonuniform List<scalar> 
5952
(
5.0548e-05
-5.05427e-05
9.97681e-05
-4.92147e-05
0.000132551
-3.27779e-05
0.000147497
-1.49399e-05
0.000153198
-5.69584e-06
0.000149
4.20337e-06
0.000115199
3.3806e-05
4.22352e-05
7.2969e-05
-9.71815e-05
0.000139422
-0.00029178
0.000194604
-0.000440015
0.00014824
0.000109792
-0.000549803
4.47589e-05
-9.52957e-05
7.57783e-05
-8.02281e-05
8.12325e-05
-3.82262e-05
6.5876e-05
4.22637e-07
2.51013e-05
3.50848e-05
-5.21252e-05
8.14357e-05
-0.000175733
0.00015742
-0.000326175
0.000223417
-0.000430617
0.000243869
-0.000467167
0.000231159
-0.000504064
0.000185143
0.000145513
-0.00053978
3.31486e-05
-0.000128438
4.75743e-05
-9.46472e-05
3.6459e-05
-2.71043e-05
-3.36979e-06
4.02579e-05
-8.45621e-05
0.000116284
-0.00020446
0.00020134
-0.000316508
0.000269474
-0.000382324
0.000289239
-0.00041353
0.000275082
-0.000423332
0.000240967
-0.000434167
0.000195984
0.000155668
-0.000444315
-3.12992e-06
-0.000125301
-1.72504e-05
-8.05197e-05
-5.01523e-05
5.80468e-06
-0.000108333
9.84459e-05
-0.000189835
0.000197792
-0.000267435
0.000278947
-0.000313951
0.000315997
-0.000332732
0.000308026
-0.000338604
0.000280961
-0.00034027
0.000242641
-0.000343114
0.000198834
0.000157292
-0.000344731
-2.869e-05
-9.66031e-05
-6.69106e-05
-4.22914e-05
-0.000114738
5.36395e-05
-0.000171071
0.000154786
-0.000224645
0.000251374
-0.000255851
0.000310161
-0.000262067
0.00032222
-0.000257635
0.000303601
-0.000249319
0.000272653
-0.000241566
0.000234895
-0.000236689
0.000193964
0.000153498
-0.000232887
-5.17498e-05
-4.4845e-05
-0.000101362
7.32871e-06
-0.000148717
0.000101003
-0.000185426
0.000191504
-0.000203735
0.00026969
-0.000199967
0.0003064
-0.000185207
0.000307469
-0.000168227
0.000286629
-0.000152588
0.000257022
-0.000139909
0.000222224
-0.000130641
0.000184705
0.000146541
-0.000123677
-6.61545e-05
2.13183e-05
-0.000121114
6.22966e-05
-0.0001562
0.000136098
-0.000166646
0.000201958
-0.000153984
0.000257037
-0.000128376
0.000280801
-0.000100471
0.000279572
-7.57386e-05
0.000261906
-5.50501e-05
0.000236342
-3.8683e-05
0.000205866
-2.63227e-05
0.000172354
0.000137231
-1.70036e-05
-7.56849e-05
9.70127e-05
-0.000123428
0.000110049
-0.00013981
0.00015249
-0.000126687
0.000188845
-9.33707e-05
0.00022373
-5.41151e-05
0.000241554
-1.7041e-05
0.000242508
1.42333e-05
0.000230641
3.95585e-05
0.000211026
5.94633e-05
0.00018597
7.4781e-05
0.000157045
0.000125458
8.65637e-05
-7.1035e-05
0.000168058
-0.000107679
0.000146703
-0.000103726
0.000148547
-7.41647e-05
0.000159293
-2.89976e-05
0.000178573
1.92301e-05
0.000193337
6.34428e-05
0.000198305
0.000100572
0.000193521
0.000130546
0.000181062
0.000154254
0.000162272
0.000172884
0.000138425
0.000110703
0.000187649
-7.08116e-05
0.00023888
-7.19589e-05
0.000147861
-4.21972e-05
0.000118797
1.15948e-06
0.000115947
5.29913e-05
0.000126752
0.000105014
0.000141324
0.000152035
0.000151295
0.000191817
0.000153749
0.000224371
0.00014852
0.000250662
0.000135992
0.00027197
0.000117127
9.30948e-05
0.000289589
2.02646e-09
0.00023889
3.14361e-05
0.000116438
8.0759e-05
6.94849e-05
0.00013081
6.59069e-05
0.000179947
7.76258e-05
0.000226
9.52829e-05
0.00026719
0.000110117
0.000302627
0.000118323
0.000332487
0.000118671
0.000357571
0.000110919
0.000378953
9.57562e-05
7.41947e-05
0.000397865
0.000194195
4.47069e-05
0.000267872
4.27726e-05
0.000314023
2.33456e-05
0.000346441
3.35007e-05
0.000372925
5.11536e-05
0.000397825
7.03946e-05
0.000421575
8.63787e-05
0.000443709
9.62003e-05
0.000463946
9.84457e-05
0.000482572
9.23048e-05
0.000500124
7.82155e-05
0.000517734
5.65971e-05
-0.000629624
7.98187e-05
-0.000678998
4.93936e-05
-0.000704457
2.5457e-05
-0.000705192
7.40578e-07
-0.000685063
-2.01246e-05
-0.000642836
-4.2222e-05
-0.000577501
-6.53305e-05
-0.000487415
-9.00802e-05
-0.000371148
-0.000116262
-0.000229759
-0.000141385
-8.57967e-05
-0.000143957
-8.57918e-05
-0.000565271
0.000105314
-0.000583102
6.72321e-05
-0.00059056
3.29203e-05
-0.000589453
-3.60731e-07
-0.000577651
-3.19211e-05
-0.000553897
-6.59708e-05
-0.000516463
-0.000102759
-0.000463231
-0.000143307
-0.000391415
-0.000188073
-0.000299046
-0.000233748
-0.00017589
-0.000267108
-0.000261676
-0.000453651
0.000114656
-0.000460978
7.4566e-05
-0.000463956
3.59043e-05
-0.00046154
-2.77109e-06
-0.000451028
-4.24267e-05
-0.000432311
-8.46822e-05
-0.000404195
-0.000130868
-0.000365664
-0.000181832
-0.000315038
-0.000238692
-0.0002473
-0.00030148
-0.000151579
-0.000362823
-0.000413249
-0.000345674
0.000115606
-0.00034545
7.43489e-05
-0.000343127
3.35885e-05
-0.000338011
-7.88106e-06
-0.000329121
-5.13096e-05
-0.000315736
-9.80604e-05
-0.000296704
-0.000149893
-0.000270913
-0.000207617
-0.000236454
-0.000273144
-0.000187751
-0.000350176
-0.000114234
-0.000436333
-0.000527475
-0.000230043
0.000112769
-0.000227633
7.19468e-05
-0.000224802
3.07652e-05
-0.00022091
-1.17656e-05
-0.000215391
-5.68217e-05
-0.000207703
-0.000105741
-0.000197111
-0.000160477
-0.000182681
-0.00022204
-0.000162398
-0.00029342
-0.000134151
-0.000378415
-8.6678e-05
-0.000483799
-0.000614146
-0.000118583
0.000107682
-0.000114812
6.81841e-05
-0.000111747
2.77083e-05
-0.000108964
-1.45406e-05
-0.000106166
-5.96116e-05
-0.000103099
-0.000108799
-9.98419e-05
-0.000163727
-9.57328e-05
-0.000226141
-8.99241e-05
-0.000299221
-8.03389e-05
-0.000387993
-5.751e-05
-0.00050662
-0.000671648
-1.00893e-05
0.000100777
-5.04515e-06
6.31487e-05
-1.43339e-06
2.41052e-05
9.32011e-07
-1.68973e-05
2.01356e-06
-6.06845e-05
1.58186e-06
-0.000108358
-8.08172e-07
-0.000161328
-5.45597e-06
-0.000221484
-1.24155e-05
-0.000292253
-2.06011e-05
-0.000379799
-2.51747e-05
-0.000502038
-0.000696815
9.56318e-05
9.17181e-05
0.000102527
5.62634e-05
0.000107588
1.9053e-05
0.000110787
-2.00868e-05
0.000111746
-6.16342e-05
0.000109744
-0.000106347
0.000103664
-0.000155239
9.21368e-05
-0.000209948
7.36419e-05
-0.000273749
4.74948e-05
-0.000353643
1.6481e-05
-0.000471015
-0.000680325
0.000199598
7.97791e-05
0.000209303
4.65691e-05
0.000217087
1.12787e-05
0.000222734
-2.57238e-05
0.000225542
-6.44324e-05
0.000224284
-0.000105079
0.000217053
-0.000147998
0.000201297
-0.000194182
0.00017355
-0.000245992
0.000130142
-0.000310225
6.94968e-05
-0.000410361
-0.000610818
0.000304795
6.45832e-05
0.000318062
3.33128e-05
0.000329726
-3.74651e-07
0.000339375
-3.5362e-05
0.000345989
-7.1036e-05
0.000347848
-0.000106928
0.000342276
-0.000142415
0.000325651
-0.000177547
0.000292527
-0.000212857
0.000236304
-0.000253991
0.000146339
-0.000320386
-0.000464469
0.000415816
4.66428e-05
0.000432804
1.63358e-05
0.000449063
-1.66224e-05
0.000463858
-5.01452e-05
0.000475793
-8.29605e-05
0.000482656
-0.00011378
0.000481199
-0.000140947
0.000467189
-0.000163527
0.000433703
-0.000179361
0.00037235
-0.000192627
0.000257789
-0.000205814
-0.000206669
0.000537315
2.70736e-05
0.000557791
-4.12856e-06
0.000578988
-3.78087e-05
0.000599504
-7.06491e-05
0.000617462
-0.000100908
0.000630121
-0.000126426
0.000634061
-0.000144876
0.000625321
-0.000154775
0.000597375
-0.000151404
0.000539197
-0.000134438
0.000408821
-7.54269e-05
0.000202163
5.05483e-05
-5.0543e-05
9.97685e-05
-4.92149e-05
0.000132552
-3.27779e-05
0.000147497
-1.49397e-05
0.000153198
-5.69576e-06
0.000149
4.20362e-06
0.000115198
3.38066e-05
4.22341e-05
7.29695e-05
-9.71837e-05
0.000139423
-0.000291782
0.000194604
-0.000440017
0.000148239
0.000109792
-0.000549805
4.47591e-05
-9.52961e-05
7.57785e-05
-8.02283e-05
8.12326e-05
-3.8226e-05
6.58759e-05
4.23034e-07
2.51007e-05
3.50854e-05
-5.21265e-05
8.14367e-05
-0.000175735
0.000157421
-0.000326177
0.000223417
-0.000430618
0.00024387
-0.000467167
0.000231158
-0.000504065
0.000185142
0.000145513
-0.000539781
3.31486e-05
-0.000128438
4.75741e-05
-9.46472e-05
3.64584e-05
-2.71038e-05
-3.3709e-06
4.02589e-05
-8.45641e-05
0.000116285
-0.000204462
0.000201341
-0.000316509
0.000269475
-0.000382324
0.000289239
-0.00041353
0.000275082
-0.000423333
0.000240967
-0.000434167
0.000195983
0.000155668
-0.000444316
-3.13043e-06
-0.000125301
-1.72514e-05
-8.05191e-05
-5.01539e-05
5.80578e-06
-0.000108335
9.84475e-05
-0.000189837
0.000197794
-0.000267437
0.000278947
-0.000313952
0.000315997
-0.000332732
0.000308026
-0.000338604
0.00028096
-0.00034027
0.00024264
-0.000343114
0.000198834
0.000157292
-0.000344731
-2.86908e-05
-9.66022e-05
-6.69122e-05
-4.22902e-05
-0.00011474
5.36411e-05
-0.000171073
0.000154788
-0.000224646
0.000251375
-0.000255852
0.00031016
-0.000262067
0.00032222
-0.000257635
0.000303601
-0.000249319
0.000272652
-0.000241566
0.000234894
-0.000236689
0.000193964
0.000153497
-0.000232887
-5.17504e-05
-4.48436e-05
-0.000101363
7.3303e-06
-0.000148718
0.000101004
-0.000185427
0.000191505
-0.000203735
0.000269691
-0.000199966
0.0003064
-0.000185207
0.000307468
-0.000168226
0.000286628
-0.000152587
0.000257021
-0.000139909
0.000222224
-0.000130641
0.000184705
0.000146541
-0.000123677
-6.61545e-05
2.13198e-05
-0.000121114
6.2298e-05
-0.0001562
0.0001361
-0.000166646
0.000201959
-0.000153983
0.000257037
-0.000128375
0.0002808
-0.00010047
0.000279572
-7.57382e-05
0.000261905
-5.50498e-05
0.000236342
-3.86828e-05
0.000205865
-2.63226e-05
0.000172353
0.000137231
-1.70036e-05
-7.56845e-05
9.70138e-05
-0.000123427
0.00011005
-0.000139809
0.000152491
-0.000126686
0.000188846
-9.33696e-05
0.00022373
-5.41143e-05
0.000241554
-1.70405e-05
0.000242507
1.42336e-05
0.00023064
3.95586e-05
0.000211026
5.94634e-05
0.00018597
7.4781e-05
0.000157045
0.000125458
8.65636e-05
-7.10343e-05
0.000168058
-0.000107678
0.000146704
-0.000103725
0.000148548
-7.41634e-05
0.000159294
-2.89964e-05
0.000178573
1.9231e-05
0.000193337
6.34434e-05
0.000198305
0.000100573
0.000193521
0.000130546
0.000181062
0.000154254
0.000162272
0.000172884
0.000138425
0.000110703
0.000187649
-7.08111e-05
0.00023888
-7.1958e-05
0.000147861
-4.21962e-05
0.000118797
1.16062e-06
0.000115948
5.29924e-05
0.000126752
0.000105015
0.000141325
0.000152035
0.000151295
0.000191818
0.000153749
0.000224371
0.00014852
0.000250662
0.000135992
0.00027197
0.000117127
9.30947e-05
0.000289589
2.18853e-09
0.00023889
3.14365e-05
0.000116438
8.07596e-05
6.94853e-05
0.000130811
6.59075e-05
0.000179948
7.76264e-05
0.000226001
9.52833e-05
0.00026719
0.000110117
0.000302628
0.000118323
0.000332488
0.000118671
0.000357571
0.000110919
0.000378953
9.57563e-05
7.41947e-05
0.000397865
0.000194195
4.47066e-05
0.000267872
4.27727e-05
0.000314023
2.33459e-05
0.000346441
3.35012e-05
0.000372926
5.11541e-05
0.000397826
7.0395e-05
0.000421575
8.63791e-05
0.000443709
9.62006e-05
0.000463946
9.84459e-05
0.000482572
9.2305e-05
0.000500124
7.82157e-05
0.000517734
5.65973e-05
-0.000629625
7.98184e-05
-0.000678999
4.93934e-05
-0.000704457
2.54568e-05
-0.000705193
7.40471e-07
-0.000685063
-2.01247e-05
-0.000642836
-4.22221e-05
-0.000577501
-6.53306e-05
-0.000487416
-9.00802e-05
-0.000371148
-0.000116262
-0.000229759
-0.000141385
-8.57969e-05
-0.000143957
-8.57919e-05
-0.000565271
0.000105314
-0.000583102
6.72319e-05
-0.00059056
3.29201e-05
-0.000589454
-3.60868e-07
-0.000577652
-3.19212e-05
-0.000553897
-6.59708e-05
-0.000516463
-0.000102759
-0.000463231
-0.000143307
-0.000391415
-0.000188073
-0.000299046
-0.000233748
-0.00017589
-0.000267108
-0.000261676
-0.000453651
0.000114655
-0.000460979
7.45658e-05
-0.000463957
3.59041e-05
-0.00046154
-2.77123e-06
-0.000451028
-4.24268e-05
-0.000432311
-8.46822e-05
-0.000404195
-0.000130868
-0.000365664
-0.000181832
-0.000315038
-0.000238692
-0.0002473
-0.00030148
-0.000151579
-0.000362823
-0.000413249
-0.000345674
0.000115605
-0.00034545
7.43487e-05
-0.000343128
3.35883e-05
-0.000338011
-7.88118e-06
-0.000329121
-5.13097e-05
-0.000315736
-9.80605e-05
-0.000296705
-0.000149893
-0.000270913
-0.000207617
-0.000236454
-0.000273144
-0.000187751
-0.000350176
-0.000114234
-0.000436333
-0.000527476
-0.000230043
0.000112769
-0.000227633
7.19466e-05
-0.000224802
3.0765e-05
-0.00022091
-1.17657e-05
-0.000215391
-5.68217e-05
-0.000207703
-0.000105741
-0.000197111
-0.000160477
-0.000182681
-0.00022204
-0.000162398
-0.00029342
-0.000134151
-0.000378416
-8.6678e-05
-0.000483799
-0.000614146
-0.000118583
0.000107682
-0.000114812
6.81839e-05
-0.000111747
2.77082e-05
-0.000108964
-1.45407e-05
-0.000106166
-5.96117e-05
-0.0001031
-0.000108799
-9.9842e-05
-0.000163727
-9.57329e-05
-0.000226141
-8.99242e-05
-0.000299221
-8.03389e-05
-0.000387993
-5.751e-05
-0.00050662
-0.000671649
-1.00893e-05
0.000100777
-5.04525e-06
6.31486e-05
-1.4335e-06
2.41051e-05
9.31885e-07
-1.68973e-05
2.01344e-06
-6.06846e-05
1.58175e-06
-0.000108358
-8.08266e-07
-0.000161328
-5.45604e-06
-0.000221485
-1.24156e-05
-0.000292253
-2.06011e-05
-0.000379799
-2.51747e-05
-0.000502038
-0.000696815
9.56317e-05
9.1718e-05
0.000102526
5.62633e-05
0.000107588
1.90529e-05
0.000110787
-2.00868e-05
0.000111746
-6.16343e-05
0.000109744
-0.000106347
0.000103664
-0.000155239
9.21367e-05
-0.000209948
7.36418e-05
-0.000273749
4.74947e-05
-0.000353643
1.6481e-05
-0.000471016
-0.000680325
0.000199598
7.9779e-05
0.000209302
4.6569e-05
0.000217087
1.12786e-05
0.000222734
-2.57239e-05
0.000225542
-6.44324e-05
0.000224284
-0.000105079
0.000217053
-0.000147998
0.000201297
-0.000194182
0.00017355
-0.000245992
0.000130142
-0.000310225
6.94968e-05
-0.000410361
-0.000610818
0.000304795
6.45832e-05
0.000318062
3.33127e-05
0.000329726
-3.7471e-07
0.000339375
-3.53621e-05
0.000345989
-7.1036e-05
0.000347848
-0.000106928
0.000342276
-0.000142415
0.000325651
-0.000177547
0.000292527
-0.000212858
0.000236303
-0.000253992
0.000146339
-0.000320386
-0.00046447
0.000415816
4.66428e-05
0.000432804
1.63358e-05
0.000449063
-1.66224e-05
0.000463857
-5.01453e-05
0.000475793
-8.29606e-05
0.000482655
-0.00011378
0.000481198
-0.000140947
0.000467189
-0.000163527
0.000433703
-0.000179361
0.00037235
-0.000192627
0.000257789
-0.000205815
-0.00020667
0.000537314
2.70736e-05
0.00055779
-4.12853e-06
0.000578988
-3.78087e-05
0.000599504
-7.06491e-05
0.000617462
-0.000100908
0.000630121
-0.000126426
0.000634061
-0.000144876
0.00062532
-0.000154775
0.000597375
-0.000151404
0.000539197
-0.000134438
0.000408821
-7.54272e-05
0.000202163
5.05484e-05
-5.05431e-05
9.97688e-05
-4.9215e-05
0.000132552
-3.2778e-05
0.000147497
-1.49398e-05
0.000153198
-5.69562e-06
0.000149
4.20368e-06
0.000115199
3.38063e-05
4.22347e-05
7.29693e-05
-9.71825e-05
0.000139422
-0.000291781
0.000194604
-0.000440016
0.00014824
0.000109792
-0.000549804
4.47592e-05
-9.52965e-05
7.57787e-05
-8.02287e-05
8.1233e-05
-3.82264e-05
6.58764e-05
4.22819e-07
2.51013e-05
3.50854e-05
-5.21257e-05
8.14365e-05
-0.000175734
0.000157421
-0.000326176
0.000223417
-0.000430618
0.00024387
-0.000467167
0.000231158
-0.000504065
0.000185143
0.000145513
-0.00053978
3.31486e-05
-0.000128439
4.7574e-05
-9.46476e-05
3.64584e-05
-2.71043e-05
-3.37068e-06
4.02584e-05
-8.45634e-05
0.000116285
-0.000204461
0.000201341
-0.000316509
0.000269475
-0.000382324
0.000289239
-0.00041353
0.000275082
-0.000423333
0.000240967
-0.000434167
0.000195983
0.000155668
-0.000444316
-3.13043e-06
-0.000125301
-1.72513e-05
-8.05196e-05
-5.01536e-05
5.80513e-06
-0.000108335
9.84468e-05
-0.000189837
0.000197793
-0.000267436
0.000278947
-0.000313952
0.000315997
-0.000332732
0.000308026
-0.000338604
0.00028096
-0.00034027
0.00024264
-0.000343114
0.000198834
0.000157292
-0.000344731
-2.86907e-05
-9.66026e-05
-6.6912e-05
-4.22907e-05
-0.00011474
5.36403e-05
-0.000171072
0.000154787
-0.000224646
0.000251374
-0.000255852
0.00031016
-0.000262067
0.00032222
-0.000257635
0.000303601
-0.000249319
0.000272652
-0.000241566
0.000234894
-0.000236689
0.000193964
0.000153497
-0.000232887
-5.17504e-05
-4.4844e-05
-0.000101363
7.32973e-06
-0.000148718
0.000101004
-0.000185427
0.000191504
-0.000203735
0.00026969
-0.000199967
0.0003064
-0.000185207
0.000307468
-0.000168227
0.000286628
-0.000152588
0.000257021
-0.000139909
0.000222224
-0.000130642
0.000184705
0.000146541
-0.000123677
-6.61547e-05
2.13195e-05
-0.000121114
6.22976e-05
-0.0001562
0.000136099
-0.000166646
0.000201959
-0.000153984
0.000257036
-0.000128375
0.0002808
-0.00010047
0.000279572
-7.57385e-05
0.000261905
-5.50501e-05
0.000236342
-3.8683e-05
0.000205865
-2.63228e-05
0.000172353
0.000137231
-1.70037e-05
-7.56847e-05
9.70137e-05
-0.000123427
0.00011005
-0.000139809
0.00015249
-0.000126686
0.000188845
-9.33702e-05
0.00022373
-5.41147e-05
0.000241554
-1.70408e-05
0.000242507
1.42333e-05
0.00023064
3.95584e-05
0.000211026
5.94632e-05
0.00018597
7.47809e-05
0.000157045
0.000125457
8.65636e-05
-7.10346e-05
0.000168058
-0.000107678
0.000146703
-0.000103726
0.000148548
-7.41639e-05
0.000159293
-2.89969e-05
0.000178573
1.92305e-05
0.000193336
6.3443e-05
0.000198305
0.000100572
0.000193521
0.000130546
0.000181062
0.000154254
0.000162272
0.000172884
0.000138425
0.000110702
0.000187649
-7.08113e-05
0.000238881
-7.19583e-05
0.000147861
-4.21965e-05
0.000118797
1.16022e-06
0.000115947
5.2992e-05
0.000126752
0.000105015
0.000141324
0.000152035
0.000151295
0.000191818
0.000153749
0.000224371
0.000148519
0.000250662
0.000135992
0.00027197
0.000117127
9.30945e-05
0.000289589
2.24203e-09
0.00023889
3.14365e-05
0.000116438
8.07595e-05
6.94851e-05
0.000130811
6.59072e-05
0.000179948
7.7626e-05
0.000226001
9.52829e-05
0.00026719
0.000110117
0.000302628
0.000118323
0.000332488
0.00011867
0.000357572
0.000110919
0.000378954
9.5756e-05
7.41944e-05
0.000397865
0.000194195
4.47066e-05
0.000267872
4.27726e-05
0.000314024
2.33457e-05
0.000346442
3.35009e-05
0.000372926
5.11538e-05
0.000397826
7.03947e-05
0.000421575
8.63787e-05
0.000443709
9.62003e-05
0.000463946
9.84456e-05
0.000482572
9.23047e-05
0.000500125
7.82153e-05
0.000517734
5.65969e-05
-0.000629624
7.98185e-05
-0.000678998
4.93935e-05
-0.000704457
2.54568e-05
-0.000705193
7.40489e-07
-0.000685063
-2.01247e-05
-0.000642836
-4.22221e-05
-0.0005775
-6.53306e-05
-0.000487415
-9.00802e-05
-0.000371148
-0.000116262
-0.000229758
-0.000141385
-8.57967e-05
-0.000143957
-8.57917e-05
-0.000565271
0.000105314
-0.000583102
6.72319e-05
-0.00059056
3.29201e-05
-0.000589453
-3.60863e-07
-0.000577651
-3.19212e-05
-0.000553897
-6.59709e-05
-0.000516463
-0.000102759
-0.000463231
-0.000143307
-0.000391415
-0.000188073
-0.000299046
-0.000233748
-0.00017589
-0.000267108
-0.000261676
-0.000453651
0.000114656
-0.000460979
7.45658e-05
-0.000463957
3.59041e-05
-0.00046154
-2.77125e-06
-0.000451028
-4.24268e-05
-0.000432311
-8.46823e-05
-0.000404195
-0.000130868
-0.000365664
-0.000181832
-0.000315038
-0.000238692
-0.0002473
-0.00030148
-0.000151579
-0.000362823
-0.000413248
-0.000345674
0.000115605
-0.00034545
7.43487e-05
-0.000343128
3.35883e-05
-0.000338011
-7.88122e-06
-0.000329121
-5.13098e-05
-0.000315736
-9.80606e-05
-0.000296705
-0.000149893
-0.000270913
-0.000207617
-0.000236454
-0.000273144
-0.000187751
-0.000350176
-0.000114234
-0.000436333
-0.000527475
-0.000230043
0.000112769
-0.000227633
7.19465e-05
-0.000224802
3.0765e-05
-0.00022091
-1.17657e-05
-0.000215391
-5.68218e-05
-0.000207703
-0.000105741
-0.000197111
-0.000160477
-0.000182681
-0.00022204
-0.000162398
-0.00029342
-0.000134151
-0.000378416
-8.6678e-05
-0.000483799
-0.000614146
-0.000118583
0.000107682
-0.000114812
6.81839e-05
-0.000111747
2.77081e-05
-0.000108964
-1.45407e-05
-0.000106166
-5.96118e-05
-0.0001031
-0.000108799
-9.98419e-05
-0.000163727
-9.57329e-05
-0.000226141
-8.99242e-05
-0.000299221
-8.03389e-05
-0.000387993
-5.751e-05
-0.00050662
-0.000671648
-1.00894e-05
0.000100777
-5.0453e-06
6.31485e-05
-1.43352e-06
2.4105e-05
9.31893e-07
-1.68974e-05
2.01346e-06
-6.06847e-05
1.58178e-06
-0.000108359
-8.08233e-07
-0.000161328
-5.45601e-06
-0.000221485
-1.24156e-05
-0.000292253
-2.06011e-05
-0.000379799
-2.51747e-05
-0.000502038
-0.000696814
9.56317e-05
9.17179e-05
0.000102526
5.62631e-05
0.000107588
1.90528e-05
0.000110787
-2.0087e-05
0.000111746
-6.16344e-05
0.000109744
-0.000106347
0.000103664
-0.000155239
9.21368e-05
-0.000209948
7.36419e-05
-0.000273749
4.74948e-05
-0.000353643
1.6481e-05
-0.000471015
-0.000680324
0.000199598
7.97789e-05
0.000209303
4.65689e-05
0.000217087
1.12785e-05
0.000222734
-2.5724e-05
0.000225542
-6.44325e-05
0.000224284
-0.000105079
0.000217053
-0.000147998
0.000201297
-0.000194182
0.00017355
-0.000245992
0.000130142
-0.000310225
6.94968e-05
-0.000410361
-0.000610818
0.000304795
6.4583e-05
0.000318062
3.33125e-05
0.000329726
-3.74852e-07
0.000339375
-3.53622e-05
0.000345989
-7.10361e-05
0.000347848
-0.000106928
0.000342276
-0.000142415
0.000325651
-0.000177547
0.000292527
-0.000212858
0.000236304
-0.000253991
0.000146339
-0.000320386
-0.000464469
0.000415817
4.66425e-05
0.000432805
1.63356e-05
0.000449063
-1.66225e-05
0.000463858
-5.01454e-05
0.000475793
-8.29607e-05
0.000482656
-0.00011378
0.000481199
-0.000140947
0.000467189
-0.000163527
0.000433703
-0.000179361
0.00037235
-0.000192627
0.000257789
-0.000205814
-0.000206669
0.000537315
2.70734e-05
0.000557791
-4.12873e-06
0.000578989
-3.78088e-05
0.000599504
-7.06492e-05
0.000617463
-0.000100908
0.000630121
-0.000126426
0.000634061
-0.000144876
0.000625321
-0.000154775
0.000597375
-0.000151404
0.000539197
-0.000134438
0.000408821
-7.54269e-05
0.000202163
5.05481e-05
-5.05428e-05
9.97682e-05
-4.92147e-05
0.000132551
-3.27778e-05
0.000147497
-1.49398e-05
0.000153198
-5.69579e-06
0.000149
4.20346e-06
0.000115199
3.38061e-05
4.2235e-05
7.29691e-05
-9.71816e-05
0.000139422
-0.00029178
0.000194603
-0.000440015
0.00014824
0.000109792
-0.000549803
4.47589e-05
-9.52958e-05
7.57783e-05
-8.02282e-05
8.12325e-05
-3.82261e-05
6.58759e-05
4.22797e-07
2.51011e-05
3.5085e-05
-5.21255e-05
8.1436e-05
-0.000175734
0.00015742
-0.000326175
0.000223416
-0.000430617
0.000243869
-0.000467166
0.000231158
-0.000504064
0.000185143
0.000145513
-0.000539779
3.31486e-05
-0.000128438
4.75742e-05
-9.46472e-05
3.64587e-05
-2.7104e-05
-3.37027e-06
4.02583e-05
-8.45628e-05
0.000116284
-0.00020446
0.00020134
-0.000316508
0.000269474
-0.000382323
0.000289238
-0.00041353
0.000275081
-0.000423332
0.000240967
-0.000434166
0.000195983
0.000155668
-0.000444315
-3.1302e-06
-0.000125301
-1.72509e-05
-8.05193e-05
-5.01531e-05
5.80521e-06
-0.000108334
9.84465e-05
-0.000189836
0.000197793
-0.000267435
0.000278946
-0.000313951
0.000315996
-0.000332732
0.000308026
-0.000338604
0.00028096
-0.00034027
0.00024264
-0.000343113
0.000198834
0.000157292
-0.000344731
-2.86905e-05
-9.66025e-05
-6.69115e-05
-4.22907e-05
-0.000114739
5.36403e-05
-0.000171072
0.000154787
-0.000224645
0.000251374
-0.000255851
0.00031016
-0.000262067
0.000322219
-0.000257634
0.0003036
-0.000249319
0.000272652
-0.000241566
0.000234894
-0.000236688
0.000193964
0.000153497
-0.000232887
-5.17502e-05
-4.48441e-05
-0.000101362
7.32966e-06
-0.000148718
0.000101004
-0.000185427
0.000191504
-0.000203735
0.00026969
-0.000199966
0.000306399
-0.000185207
0.000307468
-0.000168226
0.000286628
-0.000152587
0.000257021
-0.000139909
0.000222224
-0.000130641
0.000184705
0.000146541
-0.000123677
-6.61545e-05
2.13194e-05
-0.000121114
6.22975e-05
-0.0001562
0.000136099
-0.000166646
0.000201959
-0.000153983
0.000257036
-0.000128375
0.0002808
-0.00010047
0.000279571
-7.57384e-05
0.000261905
-5.50499e-05
0.000236341
-3.86828e-05
0.000205865
-2.63226e-05
0.000172353
0.000137231
-1.70035e-05
-7.56846e-05
9.70135e-05
-0.000123427
0.00011005
-0.000139809
0.00015249
-0.000126686
0.000188845
-9.33702e-05
0.000223729
-5.41148e-05
0.000241553
-1.70409e-05
0.000242507
1.42333e-05
0.00023064
3.95585e-05
0.000211026
5.94633e-05
0.00018597
7.47809e-05
0.000157045
0.000125458
8.65636e-05
-7.10345e-05
0.000168058
-0.000107678
0.000146703
-0.000103726
0.000148548
-7.4164e-05
0.000159293
-2.89971e-05
0.000178573
1.92304e-05
0.000193336
6.34429e-05
0.000198304
0.000100572
0.000193521
0.000130546
0.000181062
0.000154254
0.000162272
0.000172884
0.000138425
0.000110702
0.000187649
-7.08113e-05
0.00023888
-7.19583e-05
0.000147861
-4.21965e-05
0.000118797
1.16011e-06
0.000115947
5.29918e-05
0.000126752
0.000105014
0.000141324
0.000152035
0.000151295
0.000191817
0.000153749
0.000224371
0.000148519
0.000250661
0.000135992
0.00027197
0.000117127
9.30945e-05
0.000289589
2.17353e-09
0.00023889
3.14364e-05
0.000116438
8.07594e-05
6.94851e-05
0.000130811
6.59071e-05
0.000179948
7.76258e-05
0.000226001
9.52827e-05
0.00026719
0.000110117
0.000302627
0.000118322
0.000332487
0.00011867
0.000357571
0.000110919
0.000378953
9.57559e-05
7.41944e-05
0.000397865
0.000194195
4.47066e-05
0.000267872
4.27726e-05
0.000314023
2.33457e-05
0.000346441
3.35008e-05
0.000372925
5.11536e-05
0.000397825
7.03944e-05
0.000421575
8.63784e-05
0.000443709
9.62e-05
0.000463946
9.84453e-05
0.000482572
9.23045e-05
0.000500125
7.82152e-05
0.000517734
5.65969e-05
-0.000629623
7.98186e-05
-0.000678997
4.93935e-05
-0.000704456
2.54569e-05
-0.000705192
7.40589e-07
-0.000685062
-2.01246e-05
-0.000642835
-4.22219e-05
-0.0005775
-6.53305e-05
-0.000487415
-9.00801e-05
-0.000371148
-0.000116262
-0.000229758
-0.000141385
-8.57965e-05
-0.000143957
-8.57915e-05
-0.00056527
0.000105314
-0.000583101
6.7232e-05
-0.000590559
3.29202e-05
-0.000589453
-3.60719e-07
-0.000577651
-3.19211e-05
-0.000553896
-6.59707e-05
-0.000516462
-0.000102759
-0.00046323
-0.000143307
-0.000391414
-0.000188072
-0.000299046
-0.000233747
-0.000175889
-0.000267108
-0.000261675
-0.00045365
0.000114656
-0.000460978
7.45659e-05
-0.000463956
3.59043e-05
-0.000461539
-2.77105e-06
-0.000451028
-4.24266e-05
-0.00043231
-8.4682e-05
-0.000404195
-0.000130868
-0.000365664
-0.000181832
-0.000315038
-0.000238692
-0.0002473
-0.00030148
-0.000151579
-0.000362822
-0.000413248
-0.000345674
0.000115605
-0.00034545
7.43488e-05
-0.000343127
3.35885e-05
-0.00033801
-7.881e-06
-0.00032912
-5.13095e-05
-0.000315735
-9.80602e-05
-0.000296704
-0.000149892
-0.000270912
-0.000207617
-0.000236454
-0.000273144
-0.000187751
-0.000350176
-0.000114233
-0.000436333
-0.000527475
-0.000230042
0.000112769
-0.000227633
7.19467e-05
-0.000224802
3.07652e-05
-0.00022091
-1.17655e-05
-0.00021539
-5.68215e-05
-0.000207703
-0.00010574
-0.000197111
-0.000160477
-0.000182681
-0.000222039
-0.000162398
-0.00029342
-0.000134151
-0.000378415
-8.66779e-05
-0.000483799
-0.000614146
-0.000118582
0.000107682
-0.000114812
6.8184e-05
-0.000111747
2.77083e-05
-0.000108963
-1.45405e-05
-0.000106165
-5.96115e-05
-0.000103099
-0.000108799
-9.98417e-05
-0.000163726
-9.57327e-05
-0.000226141
-8.9924e-05
-0.00029922
-8.03388e-05
-0.000387992
-5.751e-05
-0.00050662
-0.000671648
-1.00892e-05
0.000100777
-5.04506e-06
6.31487e-05
-1.4333e-06
2.41053e-05
9.3209e-07
-1.68972e-05
2.01364e-06
-6.06843e-05
1.58194e-06
-0.000108358
-8.08103e-07
-0.000161328
-5.45591e-06
-0.000221484
-1.24155e-05
-0.000292252
-2.06011e-05
-0.000379798
-2.51746e-05
-0.000502038
-0.000696814
9.56318e-05
9.17179e-05
0.000102527
5.62633e-05
0.000107588
1.9053e-05
0.000110787
-2.00867e-05
0.000111746
-6.1634e-05
0.000109744
-0.000106347
0.000103664
-0.000155239
9.21368e-05
-0.000209948
7.36419e-05
-0.000273748
4.74948e-05
-0.000353642
1.6481e-05
-0.000471015
-0.000680324
0.000199598
7.97789e-05
0.000209303
4.6569e-05
0.000217087
1.12787e-05
0.000222734
-2.57238e-05
0.000225542
-6.44322e-05
0.000224284
-0.000105079
0.000217053
-0.000147998
0.000201297
-0.000194182
0.00017355
-0.000245992
0.000130142
-0.000310225
6.94967e-05
-0.00041036
-0.000610818
0.000304795
6.4583e-05
0.000318062
3.33127e-05
0.000329726
-3.74662e-07
0.000339375
-3.53619e-05
0.000345989
-7.10358e-05
0.000347848
-0.000106928
0.000342276
-0.000142415
0.000325651
-0.000177547
0.000292527
-0.000212857
0.000236303
-0.000253991
0.000146339
-0.000320385
-0.000464469
0.000415816
4.66426e-05
0.000432804
1.63357e-05
0.000449063
-1.66224e-05
0.000463857
-5.01451e-05
0.000475793
-8.29603e-05
0.000482655
-0.000113779
0.000481198
-0.000140947
0.000467189
-0.000163526
0.000433703
-0.00017936
0.00037235
-0.000192627
0.000257789
-0.000205814
-0.000206669
0.000537315
2.70734e-05
0.000557791
-4.12863e-06
0.000578988
-3.78086e-05
0.000599504
-7.06489e-05
0.000617462
-0.000100907
0.000630121
-0.000126426
0.000634061
-0.000144876
0.00062532
-0.000154774
0.000597374
-0.000151403
0.000539197
-0.000134437
0.000408821
-7.54266e-05
0.000202163
0.000725251
9.71955e-05
-0.000777727
0.000696514
7.15207e-05
0.000658708
6.11636e-05
0.000632149
6.00725e-05
0.000616346
6.69681e-05
0.000609305
7.7448e-05
0.000608567
8.7129e-05
0.000611962
9.28174e-05
0.000618062
9.23574e-05
0.000626514
8.38648e-05
0.000637293
6.74486e-05
4.20698e-05
0.000651833
0.000936218
0.000100993
-0.000940004
0.000915713
9.20382e-05
0.000888372
8.85169e-05
0.000860068
8.83894e-05
0.000834902
9.21464e-05
0.000814555
9.78075e-05
0.000799302
0.000102394
0.000788898
0.000103234
0.00078311
9.81577e-05
0.000782405
8.45823e-05
0.000787085
6.27812e-05
2.92133e-05
0.000799954
0.00106554
0.000100323
-0.00106485
0.00105757
0.00010002
0.0010441
0.000101992
0.00102667
0.000105835
0.00100738
0.000111448
0.0009882
0.000117003
0.000970665
0.000119942
0.00095616
0.000117752
0.000946113
0.000108217
0.000942428
8.82803e-05
0.000946633
5.8589e-05
1.22075e-05
0.000963652
0.00117468
-0.00117356
9.92112e-05
0.00117265
0.000102068
0.00116662
0.000108033
0.001157
0.000115466
0.00114489
0.000123574
0.00113195
0.000129961
0.00111985
0.000132047
0.00111052
0.000127095
0.00110617
0.000112585
0.00110964
8.4821e-05
0.0011242
4.40488e-05