/*--------------------------------*- C++ -*----------------------------------*\
| =========                 |                                                 |
| \\      /  F ield         | OpenFOAM: The Open Source CFD Toolbox           |
|  \\    /   O peration     | Version:  2212                                  |
|   \\  /    A nd           | Website:  www.openfoam.com                      |
|    \\/     M anipulation  |                                                 |
\*---------------------------------------------------------------------------*/
FoamFile
{
    version     2.0;
    format      ascii;
    arch        "LSB;label=32;scalar=64";
    class       volScalarField;
    location    "0.04";
    object      rho;
}
// * * * * * * * * * * * * * * * * * * * * * * * * * * * * * * * * * * * * * //

dimensions      [1 -3 0 0 0 0 0];

internalField   nonuniform List<scalar> 
3072
(
1.1688
1.16859
1.16848
1.16842
1.16844
1.16864
1.16935
1.17045
1.17001
1.16996
1.17009
1.17003
1.17037
1.16996
1.17
1.17016
1.17066
1.17082
1.17135
1.17218
1.17328
1.17408
1.17456
1.17479
1.17151
1.17094
1.1712
1.17153
1.17191
1.17246
1.17326
1.17397
1.1747
1.17524
1.17565
1.17594
1.17331
1.17273
1.17305
1.17343
1.17404
1.17473
1.17544
1.1761
1.17665
1.17705
1.17736
1.1776
1.17497
1.17467
1.17503
1.17552
1.17615
1.17681
1.17744
1.17799
1.17842
1.17873
1.17896
1.17913
1.17679
1.1767
1.17706
1.1776
1.17819
1.17875
1.17926
1.17966
1.17997
1.18019
1.18036
1.18049
1.17858
1.17872
1.17907
1.1796
1.1801
1.18056
1.18092
1.1812
1.1814
1.18153
1.18163
1.1817
1.18031
1.18072
1.18101
1.18148
1.18188
1.1822
1.18242
1.18257
1.18266
1.18272
1.18275
1.18276
1.18222
1.18267
1.18282
1.1832
1.18345
1.18362
1.18372
1.18376
1.18376
1.18374
1.18372
1.18369
1.18396
1.18426
1.18432
1.1846
1.18473
1.1848
1.1848
1.18476
1.1847
1.18463
1.18456
1.18451
1.18537
1.18566
1.18553
1.18574
1.18582
1.18581
1.18575
1.18565
1.18554
1.18543
1.18533
1.18525
1.18535
1.18672
1.18668
1.18682
1.18684
1.18677
1.18665
1.1865
1.18635
1.1862
1.18607
1.18596
1.17018
1.17036
1.17069
1.17118
1.17176
1.17232
1.17294
1.17341
1.17372
1.17366
1.17343
1.17279
1.17501
1.17513
1.17525
1.17542
1.17562
1.17582
1.176
1.17611
1.1761
1.17599
1.17543
1.1739
1.17612
1.17627
1.17643
1.17662
1.17684
1.17703
1.17717
1.17721
1.17708
1.17691
1.1764
1.17424
1.1778
1.17798
1.17813
1.17826
1.17837
1.17844
1.17847
1.17839
1.17817
1.17786
1.17738
1.17509
1.17928
1.1794
1.1795
1.17958
1.17965
1.17968
1.17967
1.1796
1.1794
1.17907
1.17867
1.17655
1.18059
1.18067
1.18074
1.18081
1.18087
1.18091
1.18093
1.18091
1.1808
1.18057
1.18028
1.1785
1.18175
1.18181
1.18186
1.18192
1.18199
1.18207
1.18216
1.18224
1.18228
1.18223
1.18218
1.18093
1.18278
1.18281
1.18285
1.18292
1.18302
1.18315
1.18333
1.18354
1.18377
1.18399
1.18435
1.18375
1.18368
1.18369
1.18372
1.1838
1.18393
1.18412
1.18438
1.18473
1.18518
1.18571
1.18656
1.18695
1.18447
1.18447
1.1845
1.18458
1.18472
1.18496
1.18529
1.18576
1.1864
1.18723
1.18865
1.19008
1.1852
1.18517
1.18519
1.18527
1.18542
1.18567
1.18604
1.18658
1.18733
1.18838
1.19035
1.19287
1.18589
1.18584
1.18584
1.1859
1.18603
1.18626
1.18663
1.18717
1.18792
1.18903
1.19111
1.19489
1.1687
1.16852
1.16842
1.16836
1.1684
1.16852
1.16901
1.17033
1.16981
1.16975
1.16989
1.16986
1.17028
1.1699
1.16992
1.17004
1.17049
1.17072
1.17105
1.17175
1.17279
1.17365
1.17418
1.17444
1.17139
1.17084
1.17106
1.17137
1.17171
1.17214
1.17286
1.17356
1.17427
1.17483
1.17526
1.17558
1.17314
1.17255
1.17284
1.17316
1.1737
1.17433
1.17502
1.17567
1.17625
1.17668
1.177
1.17725
1.17477
1.17442
1.17474
1.17517
1.17576
1.17639
1.17703
1.17759
1.17804
1.17837
1.17861
1.17879
1.17659
1.17644
1.17677
1.17727
1.17782
1.17837
1.17888
1.1793
1.17962
1.17986
1.18003
1.18016
1.17838
1.17847
1.1788
1.1793
1.17978
1.18022
1.18059
1.18087
1.18107
1.18122
1.18132
1.18139
1.18013
1.18048
1.18076
1.18121
1.18159
1.18191
1.18213
1.18228
1.18237
1.18243
1.18246
1.18248
1.18205
1.18243
1.18258
1.18295
1.1832
1.18337
1.18346
1.1835
1.1835
1.18348
1.18345
1.18343
1.18377
1.18403
1.18411
1.18438
1.18452
1.18459
1.18459
1.18454
1.18448
1.1844
1.18433
1.18427
1.18518
1.18545
1.18535
1.18557
1.18566
1.18566
1.18559
1.18549
1.18536
1.18524
1.18513
1.18503
1.18522
1.18653
1.18653
1.18669
1.18674
1.18668
1.18655
1.18638
1.18621
1.18605
1.18589
1.18576
1.16997
1.17014
1.17043
1.17087
1.1714
1.1719
1.17247
1.17288
1.17315
1.17307
1.17283
1.1722
1.17467
1.17479
1.17489
1.17503
1.1752
1.17536
1.17551
1.17558
1.17555
1.1754
1.17485
1.17335
1.17577
1.17592
1.17606
1.17623
1.17642
1.1766
1.17671
1.17673
1.17659
1.17641
1.17589
1.17377
1.17745
1.17762
1.17777
1.17788
1.17798
1.17803
1.17804
1.17795
1.17772
1.1774
1.17692
1.17465
1.17893
1.17905
1.17914
1.17922
1.17927
1.17929
1.17927
1.17918
1.17897
1.17863
1.17824
1.17611
1.18026
1.18034
1.1804
1.18046
1.18051
1.18054
1.18054
1.18051
1.18038
1.18012
1.17983
1.17804
1.18144
1.18149
1.18154
1.18159
1.18165
1.18172
1.18179
1.18185
1.18187
1.18179
1.18171
1.18042
1.18249
1.18251
1.18255
1.18261
1.18269
1.18281
1.18297
1.18316
1.18336
1.18354
1.18384
1.18318
1.18341
1.18341
1.18344
1.18351
1.18362
1.1838
1.18404
1.18436
1.18477
1.18526
1.18603
1.18632
1.18422
1.18421
1.18423
1.1843
1.18444
1.18465
1.18496
1.1854
1.186
1.18678
1.1881
1.18941
1.18497
1.18493
1.18495
1.18501
1.18515
1.18538
1.18573
1.18624
1.18695
1.18794
1.1898
1.19222
1.18567
1.18561
1.1856
1.18565
1.18577
1.18599
1.18633
1.18684
1.18756
1.18863
1.19062
1.19435
1.1688
1.16859
1.16848
1.16842
1.16844
1.16864
1.16935
1.17045
1.17001
1.16996
1.17009
1.17003
1.17037
1.16996
1.17
1.17016
1.17066
1.17082
1.17135
1.17218
1.17328
1.17408
1.17456
1.17479
1.17151
1.17094
1.1712
1.17153
1.17191
1.17246
1.17326
1.17397
1.1747
1.17524
1.17565
1.17594
1.17331
1.17273
1.17305
1.17343
1.17404
1.17473
1.17544
1.1761
1.17665
1.17705
1.17736
1.1776
1.17497
1.17467
1.17503
1.17552
1.17615
1.17681
1.17744
1.17799
1.17842
1.17873
1.17896
1.17913
1.17679
1.1767
1.17706
1.1776
1.17819
1.17875
1.17926
1.17966
1.17997
1.18019
1.18036
1.18049
1.17858
1.17872
1.17907
1.1796
1.1801
1.18056
1.18092
1.1812
1.1814
1.18153
1.18163
1.1817
1.18031
1.18072
1.18101
1.18148
1.18188
1.1822
1.18242
1.18257
1.18266
1.18272
1.18275
1.18276
1.18222
1.18267
1.18282
1.1832
1.18345
1.18362
1.18371
1.18376
1.18376
1.18374
1.18372
1.18369
1.18396
1.18426
1.18432
1.1846
1.18473
1.1848
1.1848
1.18476
1.1847
1.18463
1.18456
1.18451
1.18537
1.18566
1.18553
1.18574
1.18582
1.18581
1.18575
1.18565
1.18554
1.18543
1.18533
1.18525
1.18535
1.18672
1.18668
1.18682
1.18684
1.18677
1.18665
1.1865
1.18635
1.1862
1.18607
1.18596
1.17018
1.17036
1.17069
1.17118
1.17176
1.17232
1.17294
1.17341
1.17371
1.17366
1.17343
1.17279
1.17501
1.17513
1.17525
1.17542
1.17562
1.17582
1.176
1.17611
1.1761
1.17599
1.17543
1.1739
1.17612
1.17627
1.17643
1.17662
1.17684
1.17703
1.17717
1.1772
1.17708
1.17691
1.1764
1.17424
1.1778
1.17798
1.17813
1.17826
1.17837
1.17844
1.17847
1.17839
1.17817
1.17786
1.17738
1.17509
1.17928
1.1794
1.1795
1.17958
1.17965
1.17968
1.17967
1.1796
1.1794
1.17907
1.17867
1.17655
1.18058
1.18067
1.18074
1.18081
1.18087
1.18091
1.18093
1.18091
1.1808
1.18057
1.18028
1.1785
1.18175
1.18181
1.18186
1.18192
1.18199
1.18207
1.18216
1.18224
1.18228
1.18223
1.18218
1.18093
1.18278
1.18281
1.18285
1.18292
1.18302
1.18315
1.18333
1.18354
1.18377
1.18399
1.18435
1.18375
1.18368
1.18369
1.18372
1.1838
1.18393
1.18412
1.18438
1.18473
1.18518
1.18571
1.18656
1.18695
1.18447
1.18447
1.1845
1.18458
1.18472
1.18496
1.18529
1.18576
1.1864
1.18723
1.18865
1.19008
1.1852
1.18517
1.18519
1.18527
1.18542
1.18567
1.18604
1.18658
1.18733
1.18838
1.19035
1.19287
1.18589
1.18584
1.18584
1.1859
1.18603
1.18626
1.18663
1.18717
1.18792
1.18903
1.19111
1.19489
1.1687
1.16852
1.16842
1.16836
1.1684
1.16852
1.16901
1.17033
1.16981
1.16975
1.16989
1.16986
1.17028
1.1699
1.16992
1.17004
1.17049
1.17072
1.17105
1.17175
1.17279
1.17365
1.17418
1.17444
1.17139
1.17084
1.17106
1.17137
1.17171
1.17214
1.17286
1.17356
1.17427
1.17483
1.17526
1.17558
1.17314
1.17255
1.17284
1.17316
1.1737
1.17433
1.17502
1.17567
1.17625
1.17668
1.177
1.17725
1.17477
1.17442
1.17474
1.17517
1.17576
1.17639
1.17703
1.17759
1.17804
1.17837
1.17861
1.17879
1.17659
1.17644
1.17677
1.17727
1.17782
1.17837
1.17888
1.1793
1.17962
1.17986
1.18003
1.18016
1.17838
1.17847
1.1788
1.1793
1.17978
1.18022
1.18059
1.18087
1.18107
1.18122
1.18132
1.18139
1.18013
1.18048
1.18076
1.18121
1.18159
1.18191
1.18213
1.18228
1.18237
1.18243
1.18246
1.18248
1.18205
1.18243
1.18258
1.18295
1.1832
1.18337
1.18346
1.1835
1.1835
1.18348
1.18345
1.18343
1.18377
1.18403
1.18411
1.18438
1.18452
1.18459
1.18459
1.18454
1.18448
1.1844
1.18433
1.18427
1.18518
1.18545
1.18535
1.18557
1.18566
1.18566
1.18559
1.18549
1.18536
1.18524
1.18513
1.18503
1.18522
1.18653
1.18653
1.18669
1.18674
1.18668
1.18655
1.18638
1.18621
1.18605
1.18589
1.18576
1.16997
1.17014
1.17043
1.17087
1.1714
1.1719
1.17247
1.17288
1.17315
1.17307
1.17283
1.1722
1.17467
1.17479
1.17489
1.17503
1.1752
1.17536
1.17551
1.17558
1.17555
1.1754
1.17485
1.17335
1.17577
1.17592
1.17606
1.17623
1.17642
1.1766
1.17671
1.17673
1.17659
1.17641
1.17589
1.17377
1.17745
1.17762
1.17777
1.17788
1.17798
1.17803
1.17804
1.17795
1.17772
1.1774
1.17692
1.17465
1.17893
1.17905
1.17914
1.17922
1.17927
1.17929
1.17927
1.17918
1.17897
1.17863
1.17824
1.17611
1.18026
1.18034
1.1804
1.18046
1.18051
1.18054
1.18054
1.18051
1.18038
1.18012
1.17983
1.17804
1.18144
1.18149
1.18154
1.18159
1.18165
1.18172
1.18179
1.18185
1.18187
1.18179
1.18171
1.18042
1.18249
1.18251
1.18255
1.18261
1.18269
1.18281
1.18297
1.18316
1.18336
1.18354
1.18384
1.18318
1.18341
1.18341
1.18344
1.18351
1.18362
1.1838
1.18404
1.18436
1.18477
1.18526
1.18603
1.18632
1.18422
1.18421
1.18423
1.1843
1.18444
1.18465
1.18496
1.1854
1.186
1.18678
1.1881
1.18941
1.18497
1.18493
1.18495
1.18501
1.18515
1.18538
1.18573
1.18624
1.18695
1.18794
1.1898
1.19222
1.18567
1.18561
1.1856
1.18565
1.18577
1.18599
1.18633
1.18684
1.18756
1.18863
1.19062
1.19435
1.18816
1.18825
1.18808
1.18795
1.18781
1.18765
1.18747
1.18728
1.18709
1.18692
1.18677
1.18664
1.18836
1.18813
1.18819
1.18822
1.1882
1.18813
1.188
1.18785
1.18768
1.18752
1.18737
1.18723
1.18836
1.18825
1.18831
1.18835
1.18836
1.18833
1.18827
1.18818
1.18806
1.18794
1.18781
1.18769
1.18835
1.18834
1.18837
1.1884
1.18842
1.18841
1.18839
1.18834
1.18828
1.1882
1.18811
1.18802
1.18653
1.18647
1.18644
1.18646
1.18656
1.18676
1.18707
1.18754
1.18815
1.18899
1.18976
1.19098
1.18711
1.18702
1.18696
1.18695
1.18701
1.18715
1.18738
1.18776
1.18822
1.18887
1.18928
1.1897
1.18757
1.18747
1.18739
1.18734
1.18735
1.18742
1.18757
1.18783
1.18817
1.18865
1.18896
1.18915
1.18792
1.18781
1.1877
1.18762
1.18757
1.18757
1.18762
1.18776
1.18796
1.18831
1.18856
1.18882
1.18811
1.18816
1.18801
1.18789
1.18776
1.1876
1.18741
1.1872
1.18699
1.18679
1.1866
1.18644
1.18843
1.18814
1.18818
1.1882
1.18817
1.18809
1.18795
1.18777
1.18758
1.18738
1.18718
1.18701
1.18853
1.18836
1.18837
1.18837
1.18835
1.1883
1.18821
1.18808
1.18793
1.18775
1.18757
1.1874
1.18863
1.18855
1.18853
1.18851
1.18847
1.18842
1.18835
1.18826
1.18814
1.18799
1.18783
1.18767
1.18632
1.18623
1.1862
1.18622
1.18631
1.18649
1.18678
1.18723
1.18781
1.18863
1.1894
1.19069
1.18686
1.18676
1.1867
1.18669
1.18675
1.18688
1.1871
1.18745
1.18791
1.18854
1.18898
1.18945
1.18726
1.18715
1.18708
1.18705
1.18707
1.18715
1.18729
1.18754
1.18787
1.18834
1.18867
1.18888
1.18753
1.18743
1.18737
1.18733
1.18731
1.18734
1.1874
1.18753
1.18771
1.18802
1.18827
1.18851
1.18816
1.18825
1.18808
1.18795
1.18781
1.18765
1.18747
1.18728
1.18709
1.18692
1.18677
1.18664
1.18836
1.18813
1.18819
1.18822
1.1882
1.18813
1.188
1.18785
1.18768
1.18752
1.18737
1.18723
1.18835
1.18825
1.18831
1.18835
1.18836
1.18833
1.18827
1.18818
1.18806
1.18794
1.18781
1.18768
1.18835
1.18834
1.18837
1.1884
1.18842
1.18841
1.18839
1.18834
1.18828
1.1882
1.18811
1.18802
1.18653
1.18647
1.18644
1.18646
1.18656
1.18676
1.18707
1.18754
1.18815
1.18899
1.18976
1.19098
1.18711
1.18702
1.18696
1.18695
1.18701
1.18715
1.18738
1.18776
1.18822
1.18887
1.18928
1.1897
1.18757
1.18747
1.18739
1.18734
1.18735
1.18742
1.18757
1.18783
1.18817
1.18865
1.18896
1.18915
1.18792
1.18781
1.1877
1.18762
1.18757
1.18757
1.18762
1.18776
1.18796
1.18831
1.18856
1.18882
1.18811
1.18816
1.18801
1.18789
1.18776
1.1876
1.18741
1.1872
1.18699
1.18679
1.1866
1.18644
1.18843
1.18814
1.18818
1.1882
1.18817
1.18809
1.18795
1.18777
1.18758
1.18738
1.18718
1.18701
1.18853
1.18836
1.18837
1.18837
1.18835
1.1883
1.18821
1.18808
1.18793
1.18775
1.18757
1.1874
1.18863
1.18855
1.18853
1.18851
1.18847
1.18842
1.18835
1.18826
1.18814
1.18799
1.18783
1.18767
1.18632
1.18623
1.1862
1.18622
1.18631
1.18649
1.18678
1.18723
1.18781
1.18863
1.1894
1.19069
1.18686
1.18676
1.1867
1.18669
1.18675
1.18688
1.1871
1.18745
1.18791
1.18854
1.18898
1.18945
1.18726
1.18715
1.18708
1.18705
1.18707
1.18715
1.18729
1.18754
1.18787
1.18834
1.18867
1.18888
1.18753
1.18743
1.18737
1.18733
1.18732
1.18734
1.1874
1.18753
1.18771
1.18802
1.18827
1.18851
1.18834
1.18839
1.18844
1.18848
1.1885
1.18851
1.18849
1.18846
1.18842
1.18836
1.1883
1.18824
1.18835
1.18843
1.18849
1.18854
1.18857
1.18858
1.18858
1.18855
1.18851
1.18847
1.18843
1.18839
1.18836
1.18844
1.18851
1.18857
1.1886
1.18862
1.18861
1.18859
1.18855
1.18851
1.18849
1.18847
1.18835
1.18844
1.18852
1.18858
1.18861
1.18862
1.18861
1.18859
1.18855
1.18851
1.18849
1.18849
1.18819
1.1881
1.18802
1.18795
1.1879
1.18788
1.18789
1.18794
1.18804
1.18824
1.18838
1.18855
1.18837
1.18831
1.18827
1.18823
1.18821
1.18821
1.18823
1.18827
1.18833
1.1884
1.18843
1.18846
1.1885
1.18845
1.18843
1.18842
1.18842
1.18842
1.18844
1.18845
1.18847
1.18847
1.18844
1.18838
1.18859
1.18854
1.18853
1.18853
1.18853
1.18854
1.18854
1.18853
1.18851
1.18847
1.18839
1.1883
1.18854
1.18852
1.18847
1.18842
1.18836
1.18828
1.1882
1.1881
1.18799
1.18785
1.18771
1.18758
1.1884
1.18834
1.18827
1.18819
1.1881
1.188
1.1879
1.18778
1.18766
1.18754
1.18744
1.18733
1.18829
1.1882
1.1881
1.18801
1.1879
1.1878
1.18768
1.18756
1.18744
1.18733
1.18724
1.18716
1.18819
1.18809
1.18798
1.18788
1.18777
1.18766
1.18754
1.18742
1.18729
1.18717
1.18707
1.187
1.18745
1.18737
1.18734
1.18733
1.18734
1.18739
1.18745
1.18756
1.18769
1.1879
1.18809
1.18829
1.18723
1.18717
1.18715
1.18717
1.18723
1.18731
1.18741
1.18755
1.18772
1.18794
1.18811
1.18828
1.18708
1.18702
1.18702
1.18706
1.18713
1.18724
1.18737
1.18753
1.18771
1.18792
1.1881
1.18826
1.18696
1.18691
1.18691
1.18696
1.18706
1.18718
1.18733
1.1875
1.18769
1.18789
1.18808
1.18824
1.18834
1.18839
1.18844
1.18848
1.1885
1.18851
1.18849
1.18846
1.18842
1.18836
1.1883
1.18824
1.18835
1.18843
1.18849
1.18854
1.18857
1.18858
1.18858
1.18855
1.18851
1.18847
1.18843
1.18839
1.18836
1.18844
1.18851
1.18857
1.1886
1.18862
1.18861
1.18859
1.18855
1.18851
1.18848
1.18847
1.18835
1.18844
1.18852
1.18858
1.18861
1.18862
1.18861
1.18858
1.18855
1.18851
1.18849
1.18849
1.18818
1.1881
1.18802
1.18795
1.1879
1.18788
1.18789
1.18794
1.18803
1.18824
1.18838
1.18855
1.18837
1.18831
1.18827
1.18823
1.18821
1.18821
1.18823
1.18827
1.18833
1.1884
1.18843
1.18846
1.1885
1.18845
1.18843
1.18842
1.18842
1.18842
1.18844
1.18845
1.18847
1.18847
1.18844
1.18838
1.18859
1.18854
1.18853
1.18853
1.18853
1.18854
1.18854
1.18853
1.18851
1.18847
1.18839
1.1883
1.18854
1.18852
1.18847
1.18842
1.18836
1.18828
1.1882
1.1881
1.18799
1.18785
1.18771
1.18758
1.1884
1.18834
1.18827
1.18819
1.1881
1.188
1.1879
1.18778
1.18766
1.18754
1.18744
1.18733
1.18829
1.1882
1.1881
1.18801
1.1879
1.1878
1.18768
1.18757
1.18744
1.18733
1.18724
1.18716
1.18819
1.18809
1.18798
1.18788
1.18777
1.18766
1.18754
1.18742
1.18729
1.18717
1.18707
1.187
1.18746
1.18738
1.18734
1.18733
1.18734
1.18739
1.18745
1.18756
1.18769
1.1879
1.18809
1.18829
1.18723
1.18717
1.18715
1.18717
1.18723
1.18731
1.18742
1.18755
1.18772
1.18794
1.18811
1.18828
1.18708
1.18702
1.18702
1.18706
1.18713
1.18724
1.18737
1.18753
1.18771
1.18792
1.1881
1.18826
1.18696
1.18691
1.18691
1.18697
1.18706
1.18718
1.18733
1.1875
1.18769
1.18789
1.18808
1.18824
1.18834
1.18844
1.18852
1.18857
1.18861
1.18861
1.1886
1.18856
1.18852
1.18847
1.18842
1.1884
1.18833
1.18843
1.18851
1.18857
1.18859
1.1886
1.18857
1.18853
1.18847
1.1884
1.18833
1.18826
1.18831
1.18842
1.1885
1.18855
1.18857
1.18857
1.18854
1.18849
1.18842
1.18833
1.18823
1.18812
1.18829
1.1884
1.18848
1.18853
1.18855
1.18854
1.1885
1.18844
1.18835
1.18826
1.18814
1.188
1.18827
1.18839
1.18847
1.18851
1.18853
1.18851
1.18846
1.18838
1.18829
1.18817
1.18804
1.18788
1.18825
1.18837
1.18845
1.18849
1.1885
1.18847
1.18842
1.18833
1.18822
1.18809
1.18795
1.18776
1.18823
1.18835
1.18843
1.18847
1.18847
1.18844
1.18837
1.18828
1.18815
1.18801
1.18785
1.18764
1.18821
1.18833
1.18841
1.18844
1.18844
1.1884
1.18833
1.18822
1.18809
1.18793
1.18775
1.18751
1.1882
1.18832
1.18839
1.18842
1.18842
1.18837
1.18829
1.18817
1.18803
1.18785
1.18765
1.18738
1.18818
1.1883
1.18837
1.18841
1.18839
1.18834
1.18825
1.18813
1.18797
1.18778
1.18756
1.18723
1.18817
1.18829
1.18836
1.18839
1.18837
1.18831
1.18821
1.18808
1.18791
1.1877
1.18745
1.18708
1.18815
1.18827
1.18834
1.18836
1.18834
1.18827
1.18817
1.18802
1.18784
1.18761
1.18732
1.1869
1.18868
1.1886
1.18858
1.18858
1.18859
1.18859
1.18858
1.18855
1.1885
1.18843
1.18833
1.18823
1.18865
1.18861
1.18859
1.1886
1.1886
1.1886
1.18857
1.18853
1.18846
1.18838
1.18827
1.18816
1.18861
1.18859
1.18858
1.18858
1.18858
1.18857
1.18854
1.18848
1.18841
1.18832
1.18822
1.18811
1.18856
1.18854
1.18854
1.18855
1.18854
1.18852
1.18848
1.18842
1.18835
1.18826
1.18816
1.18807
1.1885
1.18848
1.18849
1.1885
1.18849
1.18846
1.18842
1.18836
1.18828
1.1882
1.18811
1.18803
1.18843
1.18841
1.18843
1.18843
1.18842
1.18839
1.18835
1.18829
1.18822
1.18814
1.18807
1.188
1.18834
1.18833
1.18835
1.18835
1.18834
1.18831
1.18827
1.18821
1.18815
1.18809
1.18803
1.18797
1.18823
1.18823
1.18826
1.18827
1.18826
1.18823
1.18819
1.18814
1.18809
1.18804
1.18799
1.18795
1.18809
1.18811
1.18817
1.18818
1.18818
1.18815
1.18812
1.18807
1.18803
1.18799
1.18796
1.18793
1.1879
1.18798
1.18806
1.18809
1.1881
1.18807
1.18804
1.18801
1.18797
1.18795
1.18793
1.1879
1.18766
1.18782
1.18795
1.188
1.18801
1.188
1.18797
1.18794
1.18792
1.1879
1.18789
1.18788
1.18728
1.18754
1.18777
1.18785
1.18788
1.18787
1.18786
1.18784
1.18783
1.18783
1.18784
1.18784
1.18811
1.188
1.1879
1.18779
1.18768
1.18757
1.18745
1.18732
1.18718
1.18703
1.18689
1.1867
1.18805
1.18794
1.18784
1.18773
1.18763
1.18751
1.18739
1.18725
1.1871
1.18692
1.18672
1.18631
1.188
1.1879
1.1878
1.1877
1.1876
1.18748
1.18736
1.18721
1.18705
1.18685
1.18663
1.18618
1.18797
1.18788
1.18779
1.18769
1.18759
1.18747
1.18735
1.1872
1.18703
1.18681
1.18658
1.18614
1.18795
1.18786
1.18778
1.18769
1.18759
1.18748
1.18735
1.1872
1.18702
1.1868
1.18657
1.18614
1.18793
1.18786
1.18778
1.1877
1.18761
1.1875
1.18737
1.18721
1.18703
1.1868
1.18657
1.18615
1.18791
1.18786
1.18779
1.18772
1.18763
1.18752
1.18739
1.18723
1.18705
1.18682
1.18658
1.18616
1.1879
1.18786
1.1878
1.18773
1.18765
1.18754
1.18742
1.18726
1.18707
1.18684
1.1866
1.18618
1.18789
1.18786
1.18781
1.18775
1.18767
1.18757
1.18744
1.18729
1.1871
1.18686
1.18662
1.1862
1.18788
1.18786
1.18782
1.18776
1.18769
1.18759
1.18747
1.18731
1.18713
1.18689
1.18664
1.18621
1.18787
1.18785
1.18782
1.18777
1.18771
1.18761
1.18749
1.18734
1.18715
1.18691
1.18666
1.18623
1.18785
1.18784
1.18783
1.18779
1.18773
1.18765
1.18754
1.18739
1.18721
1.18697
1.18674
1.18628
1.18689
1.18681
1.18681
1.18688
1.18699
1.18712
1.18728
1.18746
1.18766
1.18786
1.18805
1.18821
1.18672
1.1867
1.18672
1.1868
1.18692
1.18707
1.18724
1.18742
1.18762
1.18783
1.18802
1.18819
1.18658
1.18659
1.18662
1.18671
1.18685
1.18701
1.18719
1.18739
1.18759
1.1878
1.188
1.18817
1.18645
1.18647
1.18653
1.18663
1.18678
1.18695
1.18715
1.18735
1.18756
1.18777
1.18797
1.18815
1.1863
1.18636
1.18643
1.18655
1.18671
1.1869
1.1871
1.18731
1.18753
1.18774
1.18794
1.18812
1.18615
1.18623
1.18633
1.18647
1.18664
1.18685
1.18706
1.18728
1.1875
1.18771
1.18792
1.1881
1.18598
1.18611
1.18623
1.18639
1.18658
1.1868
1.18702
1.18724
1.18746
1.18768
1.18789
1.18808
1.1858
1.18598
1.18613
1.1863
1.18651
1.18675
1.18698
1.18721
1.18743
1.18766
1.18787
1.18806
1.18562
1.18586
1.18603
1.18622
1.18645
1.1867
1.18695
1.18718
1.18741
1.18763
1.18784
1.18804
1.18543
1.18573
1.18594
1.18614
1.18638
1.18665
1.18691
1.18715
1.18738
1.1876
1.18782
1.18802
1.18524
1.18561
1.18583
1.18604
1.1863
1.1866
1.18688
1.18712
1.18735
1.18758
1.1878
1.188
1.18503
1.18546
1.18571
1.18593
1.1862
1.18653
1.18684
1.18708
1.1873
1.18753
1.18776
1.18798
1.18834
1.18844
1.18852
1.18857
1.18861
1.18861
1.1886
1.18856
1.18852
1.18847
1.18842
1.1884
1.18832
1.18843
1.18851
1.18857
1.18859
1.1886
1.18857
1.18853
1.18847
1.1884
1.18833
1.18826
1.18831
1.18842
1.1885
1.18855
1.18857
1.18857
1.18854
1.18849
1.18842
1.18833
1.18823
1.18812
1.18829
1.1884
1.18848
1.18853
1.18855
1.18854
1.1885
1.18844
1.18835
1.18825
1.18814
1.188
1.18827
1.18839
1.18847
1.18851
1.18853
1.18851
1.18846
1.18838
1.18829
1.18817
1.18804
1.18788
1.18825
1.18837
1.18845
1.18849
1.1885
1.18847
1.18841
1.18833
1.18822
1.18809
1.18795
1.18776
1.18823
1.18835
1.18843
1.18847
1.18847
1.18844
1.18837
1.18828
1.18815
1.18801
1.18785
1.18764
1.18821
1.18833
1.18841
1.18844
1.18844
1.1884
1.18833
1.18822
1.18809
1.18793
1.18775
1.18751
1.1882
1.18831
1.18839
1.18842
1.18842
1.18837
1.18829
1.18817
1.18803
1.18785
1.18765
1.18738
1.18818
1.1883
1.18837
1.1884
1.18839
1.18834
1.18825
1.18813
1.18797
1.18778
1.18756
1.18723
1.18817
1.18829
1.18836
1.18839
1.18837
1.18831
1.18821
1.18808
1.18791
1.1877
1.18745
1.18708
1.18815
1.18827
1.18834
1.18836
1.18834
1.18827
1.18816
1.18802
1.18784
1.18761
1.18732
1.1869
1.18868
1.1886
1.18858
1.18858
1.18859
1.18859
1.18858
1.18855
1.1885
1.18843
1.18833
1.18823
1.18865
1.18861
1.18859
1.1886
1.1886
1.1886
1.18857
1.18853
1.18846
1.18838
1.18827
1.18816
1.18861
1.18859
1.18858
1.18858
1.18858
1.18857
1.18854
1.18848
1.18841
1.18832
1.18822
1.18811
1.18856
1.18854
1.18854
1.18855
1.18854
1.18852
1.18848
1.18842
1.18835
1.18826
1.18816
1.18807
1.1885
1.18848
1.18849
1.18849
1.18849
1.18846
1.18842
1.18836
1.18828
1.1882
1.18811
1.18803
1.18843
1.18841
1.18843
1.18843
1.18842
1.18839
1.18835
1.18829
1.18822
1.18814
1.18807
1.188
1.18834
1.18833
1.18835
1.18835
1.18834
1.18831
1.18827
1.18821
1.18815
1.18809
1.18803
1.18797
1.18823
1.18823
1.18826
1.18827
1.18826
1.18823
1.18819
1.18814
1.18809
1.18804
1.18799
1.18795
1.18809
1.18811
1.18817
1.18818
1.18818
1.18815
1.18812
1.18807
1.18803
1.18799
1.18796
1.18793
1.1879
1.18798
1.18806
1.18809
1.1881
1.18807
1.18804
1.18801
1.18797
1.18795
1.18793
1.1879
1.18766
1.18782
1.18795
1.188
1.18801
1.188
1.18797
1.18794
1.18792
1.1879
1.18789
1.18788
1.18728
1.18754
1.18777
1.18785
1.18788
1.18787
1.18786
1.18784
1.18783
1.18783
1.18784
1.18784
1.18811
1.188
1.1879
1.18779
1.18768
1.18757
1.18745
1.18732
1.18718
1.18703
1.18689
1.1867
1.18805
1.18794
1.18784
1.18773
1.18763
1.18751
1.18739
1.18725
1.1871
1.18692
1.18672
1.18631
1.188
1.1879
1.1878
1.1877
1.1876
1.18748
1.18736
1.18721
1.18705
1.18685
1.18663
1.18618
1.18797
1.18788
1.18779
1.18769
1.18759
1.18747
1.18735
1.1872
1.18703
1.18681
1.18658
1.18614
1.18795
1.18786
1.18778
1.18769
1.18759
1.18748
1.18735
1.1872
1.18702
1.1868
1.18657
1.18614
1.18793
1.18786
1.18778
1.1877
1.18761
1.1875
1.18737
1.18721
1.18703
1.1868
1.18657
1.18615
1.18791
1.18786
1.18779
1.18772
1.18763
1.18752
1.18739
1.18723
1.18705
1.18682
1.18658
1.18617
1.1879
1.18786
1.1878
1.18773
1.18765
1.18754
1.18742
1.18726
1.18707
1.18684
1.1866
1.18618
1.18789
1.18786
1.18781
1.18775
1.18767
1.18757
1.18744
1.18729
1.1871
1.18686
1.18662
1.1862
1.18788
1.18786
1.18782
1.18777
1.18769
1.18759
1.18747
1.18731
1.18713
1.18689
1.18664
1.18621
1.18787
1.18785
1.18782
1.18778
1.18771
1.18761
1.18749
1.18734
1.18715
1.18691
1.18666
1.18623
1.18785
1.18784
1.18783
1.18779
1.18773
1.18765
1.18754
1.18739
1.18721
1.18697
1.18674
1.18628
1.18689
1.18681
1.18681
1.18688
1.18699
1.18712
1.18728
1.18746
1.18766
1.18786
1.18805
1.18821
1.18672
1.1867
1.18672
1.1868
1.18692
1.18707
1.18724
1.18742
1.18762
1.18783
1.18802
1.18819
1.18658
1.18659
1.18662
1.18671
1.18685
1.18701
1.18719
1.18739
1.18759
1.1878
1.188
1.18817
1.18645
1.18647
1.18653
1.18663
1.18678
1.18696
1.18715
1.18735
1.18756
1.18777
1.18797
1.18815
1.18631
1.18636
1.18643
1.18655
1.18671
1.1869
1.1871
1.18731
1.18753
1.18774
1.18794
1.18812
1.18615
1.18624
1.18633
1.18647
1.18665
1.18685
1.18706
1.18728
1.1875
1.18771
1.18792
1.1881
1.18598
1.18611
1.18623
1.18639
1.18658
1.1868
1.18702
1.18724
1.18746
1.18768
1.18789
1.18808
1.1858
1.18598
1.18613
1.1863
1.18651
1.18675
1.18698
1.18721
1.18744
1.18766
1.18787
1.18806
1.18562
1.18586
1.18603
1.18622
1.18645
1.1867
1.18695
1.18718
1.18741
1.18763
1.18784
1.18804
1.18543
1.18573
1.18594
1.18614
1.18638
1.18665
1.18691
1.18715
1.18738
1.1876
1.18782
1.18802
1.18524
1.18561
1.18583
1.18605
1.1863
1.1866
1.18688
1.18712
1.18735
1.18758
1.1878
1.188
1.18503
1.18546
1.18571
1.18593
1.18621
1.18654
1.18684
1.18708
1.1873
1.18753
1.18776
1.18798
)
;

boundaryField
{
    rotor
    {
        type            calculated;
        value           nonuniform List<scalar> 
192
(
1.1688
1.16859
1.16848
1.16842
1.16844
1.16864
1.16935
1.17045
1.17001
1.16996
1.17009
1.17003
1.17018
1.17036
1.17069
1.17118
1.17176
1.17232
1.17294
1.17341
1.17372
1.17366
1.17343
1.17279
1.1687
1.16852
1.16842
1.16836
1.1684
1.16852
1.16901
1.17033
1.16981
1.16975
1.16989
1.16986
1.16997
1.17014
1.17043
1.17087
1.1714
1.1719
1.17247
1.17288
1.17315
1.17307
1.17283
1.1722
1.1688
1.16859
1.16848
1.16842
1.16844
1.16864
1.16935
1.17045
1.17001
1.16996
1.17009
1.17003
1.17018
1.17036
1.17069
1.17118
1.17176
1.17232
1.17294
1.17341
1.17371
1.17366
1.17343
1.17279
1.1687
1.16852
1.16842
1.16836
1.1684
1.16852
1.16901
1.17033
1.16981
1.16975
1.16989
1.16986
1.16997
1.17014
1.17043
1.17087
1.1714
1.1719
1.17247
1.17288
1.17315
1.17307
1.17283
1.1722
1.1688
1.17037
1.17151
1.17331
1.17497
1.17679
1.17858
1.18031
1.18222
1.18396
1.18537
1.18535
1.1722
1.17335
1.17377
1.17465
1.17611
1.17804
1.18042
1.18318
1.18632
1.18941
1.19222
1.19435
1.1687
1.17028
1.17139
1.17314
1.17477
1.17659
1.17838
1.18013
1.18205
1.18377
1.18518
1.18522
1.17279
1.1739
1.17424
1.17509
1.17655
1.1785
1.18093
1.18375
1.18695
1.19008
1.19287
1.19489
1.1688
1.17037
1.17151
1.17331
1.17497
1.17679
1.17858
1.18031
1.18222
1.18396
1.18537
1.18535
1.1722
1.17335
1.17377
1.17465
1.17611
1.17804
1.18042
1.18318
1.18632
1.18941
1.19222
1.19435
1.1687
1.17028
1.17139
1.17314
1.17477
1.17659
1.17838
1.18013
1.18205
1.18377
1.18518
1.18522
1.17279
1.1739
1.17424
1.17509
1.17655
1.1785
1.18093
1.18375
1.18695
1.19008
1.19287
1.19489
)
;
    }
    stator
    {
        type            calculated;
        value           nonuniform List<scalar> 
192
(
1.18815
1.18827
1.18834
1.18836
1.18834
1.18827
1.18817
1.18802
1.18784
1.18761
1.18732
1.1869
1.18728
1.18754
1.18777
1.18785
1.18788
1.18787
1.18786
1.18784
1.18783
1.18783
1.18784
1.18784
1.18785
1.18784
1.18783
1.18779
1.18773
1.18765
1.18754
1.18739
1.18721
1.18697
1.18674
1.18628
1.18503
1.18546
1.18571
1.18593
1.1862
1.18653
1.18684
1.18708
1.1873
1.18753
1.18776
1.18798
1.18815
1.18827
1.18834
1.18836
1.18834
1.18827
1.18816
1.18802
1.18784
1.18761
1.18732
1.1869
1.18728
1.18754
1.18777
1.18785
1.18788
1.18787
1.18786
1.18784
1.18783
1.18783
1.18784
1.18784
1.18785
1.18784
1.18783
1.18779
1.18773
1.18765
1.18754
1.18739
1.18721
1.18697
1.18674
1.18628
1.18503
1.18546
1.18571
1.18593
1.18621
1.18654
1.18684
1.18708
1.1873
1.18753
1.18776
1.18798
1.18868
1.18865
1.18861
1.18856
1.1885
1.18843
1.18834
1.18823
1.18809
1.1879
1.18766
1.18728
1.1884
1.18826
1.18812
1.188
1.18788
1.18776
1.18764
1.18751
1.18738
1.18723
1.18708
1.1869
1.18689
1.18672
1.18658
1.18645
1.1863
1.18615
1.18598
1.1858
1.18562
1.18543
1.18524
1.18503
1.1867
1.18631
1.18618
1.18614
1.18614
1.18615
1.18616
1.18618
1.1862
1.18621
1.18623
1.18628
1.18868
1.18865
1.18861
1.18856
1.1885
1.18843
1.18834
1.18823
1.18809
1.1879
1.18766
1.18728
1.1884
1.18826
1.18812
1.188
1.18788
1.18776
1.18764
1.18751
1.18738
1.18723
1.18708
1.1869
1.18689
1.18672
1.18658
1.18645
1.18631
1.18615
1.18598
1.1858
1.18562
1.18543
1.18524
1.18503
1.1867
1.18631
1.18618
1.18614
1.18614
1.18615
1.18617
1.18618
1.1862
1.18621
1.18623
1.18628
)
;
    }
    front
    {
        type            empty;
    }
    back
    {
        type            empty;
    }
}


// ************************************************************************* //
