/*--------------------------------*- C++ -*----------------------------------*\
| =========                 |                                                 |
| \\      /  F ield         | OpenFOAM: The Open Source CFD Toolbox           |
|  \\    /   O peration     | Version:  2212                                  |
|   \\  /    A nd           | Website:  www.openfoam.com                      |
|    \\/     M anipulation  |                                                 |
\*---------------------------------------------------------------------------*/
FoamFile
{
    version     2.0;
    format      ascii;
    arch        "LSB;label=32;scalar=64";
    class       volScalarField;
    location    "0.04";
    object      T;
}
// * * * * * * * * * * * * * * * * * * * * * * * * * * * * * * * * * * * * * //

dimensions      [0 0 0 1 0 0 0];

internalField   nonuniform List<scalar> 
3072
(
292.429
292.424
292.417
292.407
292.393
292.349
292.17
291.935
292.136
292.146
291.98
291.86
292.281
292.258
292.215
292.154
292.043
292.071
292.035
291.976
291.998
291.965
291.891
291.857
292.179
292.148
292.062
291.998
291.984
291.98
291.956
291.944
291.932
291.921
291.902
291.888
292.086
292.065
291.988
291.955
291.953
291.961
291.96
291.954
291.95
291.948
291.948
291.948
292.039
292.016
291.964
291.946
291.957
291.971
291.98
291.987
291.997
292.006
292.013
292.016
291.989
291.966
291.946
291.943
291.972
291.997
292.02
292.037
292.053
292.068
292.079
292.085
291.913
291.908
291.912
291.938
291.985
292.027
292.062
292.09
292.113
292.132
292.147
292.157
291.862
291.851
291.888
291.942
292.005
292.061
292.11
292.148
292.178
292.201
292.218
292.23
291.767
291.828
291.901
291.976
292.053
292.121
292.176
292.219
292.252
292.276
292.293
292.303
291.718
291.868
291.973
292.068
292.148
292.213
292.263
292.301
292.33
292.35
292.364
292.372
291.791
292.004
292.126
292.201
292.259
292.306
292.343
292.371
292.393
292.408
292.418
292.423
292.106
292.206
292.267
292.294
292.322
292.35
292.376
292.398
292.417
292.43
292.439
292.444
291.72
291.648
291.604
291.589
291.608
291.68
291.769
291.908
292.06
292.258
292.432
292.513
291.806
291.78
291.763
291.754
291.752
291.772
291.812
291.873
291.95
292.073
292.268
292.362
291.873
291.859
291.848
291.84
291.836
291.84
291.855
291.882
291.92
291.973
292.073
292.193
291.943
291.936
291.929
291.923
291.918
291.916
291.918
291.923
291.93
291.941
291.976
292.016
292.016
292.013
292.007
292
291.992
291.983
291.973
291.96
291.945
291.926
291.905
291.863
292.088
292.087
292.083
292.075
292.063
292.046
292.025
291.998
291.964
291.922
291.869
291.756
292.162
292.162
292.157
292.147
292.131
292.109
292.078
292.039
291.989
291.93
291.854
291.691
292.235
292.236
292.23
292.219
292.2
292.172
292.135
292.086
292.025
291.951
291.854
291.671
292.308
292.307
292.301
292.287
292.266
292.236
292.195
292.14
292.07
291.987
291.879
291.679
292.374
292.371
292.363
292.349
292.327
292.297
292.255
292.199
292.126
292.038
291.931
291.772
292.423
292.419
292.41
292.396
292.376
292.348
292.31
292.258
292.188
292.103
292.006
291.895
292.444
292.442
292.434
292.423
292.406
292.384
292.353
292.31
292.252
292.175
292.099
292.103
292.434
292.429
292.423
292.414
292.401
292.37
292.252
291.944
292.142
292.195
292.06
291.935
292.295
292.272
292.234
292.184
292.084
292.072
292.082
292.02
292.032
292.023
291.945
291.912
292.196
292.166
292.089
292.016
292.005
292.007
291.997
291.982
291.969
291.965
291.945
291.931
292.095
292.074
291.997
291.962
291.963
291.984
291.99
291.988
291.983
291.982
291.979
291.979
292.045
292.022
291.967
291.947
291.964
291.989
292.002
292.011
292.02
292.028
292.036
292.04
291.993
291.968
291.943
291.939
291.974
292.008
292.032
292.053
292.069
292.083
292.095
292.102
291.921
291.909
291.907
291.93
291.983
292.03
292.067
292.097
292.122
292.141
292.156
292.167
291.87
291.854
291.884
291.934
291.999
292.058
292.108
292.148
292.179
292.203
292.221
292.233
291.774
291.833
291.897
291.967
292.042
292.111
292.168
292.212
292.246
292.271
292.289
292.301
291.731
291.873
291.968
292.056
292.133
292.197
292.248
292.287
292.317
292.339
292.355
292.364
291.801
292.004
292.115
292.184
292.238
292.283
292.32
292.349
292.373
292.39
292.402
292.409
292.102
292.197
292.249
292.269
292.292
292.318
292.344
292.368
292.388
292.405
292.417
292.426
291.804
291.726
291.681
291.665
291.678
291.746
291.829
291.962
292.109
292.298
292.468
292.546
291.861
291.834
291.817
291.808
291.806
291.824
291.861
291.92
291.994
292.115
292.306
292.399
291.916
291.902
291.89
291.882
291.878
291.881
291.896
291.922
291.959
292.01
292.111
292.23
291.975
291.969
291.963
291.957
291.952
291.95
291.952
291.957
291.964
291.975
292.014
292.057
292.04
292.038
292.033
292.027
292.019
292.011
292.001
291.989
291.975
291.957
291.939
291.904
292.106
292.105
292.102
292.094
292.083
292.068
292.048
292.022
291.99
291.952
291.9
291.794
292.172
292.173
292.169
292.161
292.146
292.125
292.096
292.059
292.012
291.955
291.884
291.724
292.24
292.241
292.237
292.226
292.209
292.184
292.149
292.102
292.044
291.973
291.881
291.699
292.307
292.307
292.302
292.29
292.271
292.243
292.204
292.152
292.085
292.005
291.901
291.701
292.368
292.367
292.36
292.348
292.328
292.3
292.261
292.208
292.138
292.054
291.949
291.79
292.412
292.41
292.404
292.392
292.374
292.349
292.313
292.265
292.199
292.117
292.024
291.911
292.43
292.429
292.425
292.417
292.403
292.384
292.356
292.317
292.263
292.19
292.119
292.124
292.429
292.424
292.417
292.407
292.393
292.349
292.17
291.935
292.136
292.146
291.98
291.86
292.281
292.258
292.215
292.154
292.043
292.071
292.035
291.976
291.998
291.965
291.891
291.857
292.179
292.148
292.062
291.998
291.984
291.98
291.956
291.944
291.932
291.921
291.902
291.888
292.086
292.065
291.989
291.955
291.953
291.961
291.96
291.954
291.95
291.948
291.948
291.948
292.039
292.016
291.964
291.946
291.957
291.971
291.98
291.987
291.997
292.006
292.013
292.016
291.989
291.966
291.946
291.943
291.972
291.998
292.02
292.037
292.054
292.068
292.079
292.085
291.913
291.908
291.912
291.938
291.985
292.027
292.062
292.09
292.113
292.132
292.147
292.157
291.862
291.851
291.888
291.942
292.005
292.061
292.11
292.148
292.178
292.201
292.218
292.23
291.767
291.828
291.901
291.976
292.053
292.121
292.176
292.219
292.252
292.276
292.293
292.303
291.718
291.868
291.973
292.068
292.148
292.213
292.263
292.301
292.33
292.35
292.364
292.372
291.791
292.004
292.126
292.201
292.259
292.306
292.343
292.371
292.393
292.408
292.418
292.423
292.106
292.206
292.267
292.294
292.322
292.35
292.376
292.398
292.417
292.43
292.439
292.444
291.72
291.648
291.604
291.589
291.608
291.68
291.769
291.908
292.06
292.258
292.432
292.513
291.806
291.78
291.763
291.754
291.752
291.772
291.812
291.873
291.95
292.073
292.268
292.362
291.873
291.859
291.848
291.84
291.836
291.84
291.855
291.882
291.92
291.973
292.073
292.193
291.943
291.936
291.929
291.923
291.918
291.916
291.918
291.923
291.93
291.941
291.977
292.016
292.016
292.013
292.007
292.001
291.992
291.983
291.973
291.96
291.945
291.926
291.905
291.863
292.088
292.087
292.083
292.075
292.063
292.046
292.025
291.998
291.964
291.922
291.869
291.756
292.162
292.162
292.157
292.147
292.131
292.109
292.078
292.039
291.989
291.93
291.854
291.691
292.235
292.236
292.23
292.219
292.2
292.172
292.135
292.086
292.025
291.951
291.854
291.671
292.308
292.307
292.301
292.287
292.266
292.236
292.195
292.14
292.07
291.987
291.879
291.679
292.374
292.371
292.363
292.349
292.327
292.297
292.255
292.199
292.126
292.039
291.931
291.772
292.423
292.419
292.41
292.396
292.376
292.348
292.31
292.258
292.188
292.103
292.006
291.895
292.444
292.442
292.434
292.423
292.407
292.384
292.353
292.31
292.252
292.175
292.099
292.103
292.434
292.429
292.423
292.414
292.401
292.37
292.252
291.944
292.142
292.195
292.06
291.935
292.295
292.272
292.234
292.184
292.084
292.072
292.082
292.02
292.032
292.023
291.945
291.912
292.196
292.166
292.089
292.016
292.005
292.007
291.997
291.982
291.969
291.965
291.945
291.931
292.095
292.074
291.997
291.962
291.963
291.984
291.99
291.988
291.983
291.982
291.979
291.979
292.045
292.022
291.967
291.947
291.964
291.989
292.002
292.011
292.019
292.028
292.036
292.04
291.993
291.968
291.943
291.939
291.974
292.008
292.032
292.053
292.069
292.083
292.095
292.102
291.921
291.909
291.907
291.93
291.983
292.03
292.067
292.097
292.122
292.141
292.156
292.167
291.87
291.854
291.884
291.934
291.999
292.058
292.108
292.148
292.179
292.203
292.221
292.233
291.774
291.833
291.897
291.967
292.042
292.111
292.168
292.212
292.246
292.271
292.289
292.301
291.731
291.873
291.968
292.056
292.133
292.197
292.248
292.287
292.317
292.339
292.355
292.364
291.801
292.004
292.115
292.184
292.238
292.283
292.32
292.349
292.373
292.39
292.402
292.409
292.102
292.197
292.249
292.269
292.292
292.318
292.344
292.368
292.388
292.405
292.417
292.426
291.804
291.726
291.681
291.665
291.678
291.746
291.829
291.962
292.109
292.298
292.468
292.546
291.861
291.834
291.817
291.808
291.806
291.824
291.861
291.92
291.994
292.115
292.306
292.399
291.916
291.902
291.89
291.882
291.878
291.881
291.896
291.922
291.959
292.01
292.111
292.23
291.975
291.969
291.963
291.957
291.952
291.95
291.952
291.957
291.964
291.975
292.014
292.057
292.04
292.038
292.033
292.027
292.019
292.011
292.001
291.989
291.975
291.957
291.939
291.904
292.106
292.105
292.102
292.094
292.083
292.068
292.048
292.022
291.99
291.952
291.9
291.794
292.172
292.173
292.169
292.161
292.146
292.125
292.096
292.059
292.012
291.955
291.884
291.724
292.24
292.241
292.237
292.226
292.209
292.184
292.149
292.102
292.044
291.973
291.881
291.699
292.307
292.307
292.302
292.29
292.271
292.243
292.204
292.152
292.085
292.005
291.9
291.701
292.368
292.367
292.36
292.348
292.328
292.3
292.261
292.208
292.138
292.054
291.949
291.79
292.412
292.41
292.404
292.392
292.374
292.349
292.313
292.265
292.199
292.117
292.024
291.911
292.43
292.429
292.425
292.417
292.403
292.384
292.356
292.317
292.263
292.19
292.119
292.124
292.279
292.274
292.279
292.29
292.311
292.336
292.36
292.382
292.401
292.416
292.428
292.435
292.332
292.327
292.318
292.315
292.319
292.328
292.343
292.359
292.374
292.389
292.401
292.411
292.353
292.353
292.348
292.344
292.341
292.342
292.346
292.352
292.361
292.371
292.381
292.39
292.364
292.364
292.363
292.361
292.358
292.357
292.358
292.36
292.363
292.369
292.375
292.382
292.439
292.439
292.436
292.429
292.418
292.402
292.38
292.349
292.309
292.249
292.211
292.247
292.418
292.422
292.422
292.42
292.415
292.405
292.391
292.37
292.345
292.303
292.274
292.289
292.397
292.403
292.407
292.407
292.405
292.401
292.393
292.378
292.363
292.336
292.309
292.313
292.388
292.394
292.398
292.399
292.398
292.395
292.39
292.38
292.368
292.351
292.33
292.33
292.257
292.25
292.25
292.257
292.273
292.296
292.321
292.346
292.368
292.387
292.402
292.414
292.302
292.297
292.285
292.28
292.283
292.291
292.306
292.324
292.343
292.361
292.378
292.393
292.321
292.321
292.318
292.314
292.313
292.315
292.32
292.328
292.341
292.355
292.369
292.382
292.334
292.338
292.339
292.34
292.341
292.343
292.346
292.351
292.358
292.368
292.379
292.389
292.422
292.426
292.426
292.423
292.415
292.403
292.385
292.358
292.323
292.268
292.235
292.271
292.404
292.412
292.416
292.417
292.415
292.41
292.4
292.384
292.365
292.328
292.303
292.32
292.393
292.402
292.408
292.412
292.413
292.411
292.407
292.398
292.387
292.366
292.343
292.347
292.397
292.404
292.409
292.413
292.413
292.412
292.409
292.402
292.394
292.382
292.364
292.362
292.279
292.274
292.279
292.29
292.312
292.336
292.36
292.382
292.401
292.416
292.428
292.435
292.332
292.327
292.318
292.315
292.319
292.328
292.343
292.359
292.374
292.389
292.401
292.411
292.353
292.353
292.348
292.344
292.341
292.342
292.346
292.352
292.361
292.371
292.381
292.39
292.364
292.364
292.364
292.361
292.358
292.357
292.358
292.36
292.363
292.369
292.375
292.382
292.439
292.439
292.436
292.429
292.418
292.402
292.38
292.349
292.309
292.249
292.211
292.247
292.418
292.422
292.422
292.42
292.415
292.405
292.391
292.37
292.346
292.303
292.274
292.289
292.397
292.403
292.407
292.407
292.405
292.401
292.393
292.378
292.363
292.336
292.309
292.313
292.388
292.394
292.398
292.399
292.398
292.395
292.39
292.38
292.368
292.351
292.33
292.33
292.257
292.25
292.25
292.257
292.273
292.296
292.321
292.346
292.368
292.387
292.402
292.414
292.302
292.297
292.285
292.28
292.283
292.291
292.306
292.324
292.343
292.361
292.378
292.393
292.321
292.321
292.318
292.314
292.313
292.315
292.32
292.328
292.341
292.355
292.369
292.382
292.334
292.338
292.339
292.34
292.341
292.343
292.346
292.351
292.358
292.368
292.379
292.389
292.422
292.426
292.426
292.423
292.415
292.403
292.385
292.358
292.323
292.268
292.235
292.271
292.404
292.412
292.416
292.417
292.415
292.41
292.4
292.384
292.365
292.328
292.303
292.32
292.393
292.402
292.408
292.412
292.413
292.411
292.407
292.398
292.387
292.366
292.343
292.347
292.397
292.404
292.409
292.413
292.413
292.412
292.409
292.402
292.394
292.382
292.364
292.362
292.369
292.37
292.369
292.368
292.367
292.367
292.369
292.371
292.375
292.38
292.384
292.388
292.373
292.373
292.373
292.373
292.373
292.375
292.377
292.381
292.385
292.389
292.392
292.394
292.376
292.376
292.377
292.377
292.379
292.382
292.385
292.39
292.395
292.399
292.401
292.401
292.38
292.38
292.381
292.382
292.385
292.388
292.393
292.399
292.405
292.41
292.412
292.41
292.392
292.396
292.398
292.399
292.397
292.394
292.389
292.38
292.37
292.357
292.347
292.345
292.397
292.401
292.402
292.402
292.4
292.396
292.391
292.383
292.374
292.364
292.359
292.357
292.403
292.406
292.407
292.406
292.403
292.399
292.394
292.387
292.379
292.372
292.369
292.368
292.408
292.412
292.413
292.411
292.407
292.403
292.397
292.391
292.385
292.38
292.378
292.379
292.347
292.351
292.354
292.357
292.361
292.366
292.372
292.38
292.388
292.397
292.405
292.411
292.359
292.364
292.368
292.373
292.38
292.387
292.396
292.406
292.417
292.426
292.432
292.434
292.371
292.376
292.382
292.389
292.397
292.407
292.419
292.432
292.445
292.456
292.462
292.46
292.382
292.388
292.395
292.403
292.413
292.425
292.439
292.455
292.471
292.487
292.497
292.493
292.415
292.42
292.421
292.42
292.416
292.41
292.404
292.396
292.388
292.379
292.371
292.369
292.435
292.438
292.438
292.433
292.425
292.416
292.406
292.397
292.388
292.381
292.375
292.373
292.454
292.457
292.456
292.449
292.438
292.425
292.412
292.401
292.391
292.384
292.379
292.377
292.474
292.479
292.476
292.466
292.451
292.435
292.419
292.406
292.395
292.388
292.383
292.381
292.369
292.37
292.369
292.368
292.367
292.367
292.369
292.371
292.375
292.38
292.384
292.388
292.373
292.373
292.373
292.373
292.373
292.375
292.377
292.381
292.385
292.389
292.392
292.394
292.376
292.376
292.377
292.378
292.379
292.382
292.385
292.39
292.395
292.399
292.401
292.401
292.38
292.38
292.381
292.382
292.385
292.389
292.393
292.399
292.405
292.41
292.413
292.41
292.392
292.396
292.398
292.399
292.397
292.394
292.389
292.381
292.37
292.357
292.347
292.345
292.397
292.401
292.402
292.402
292.4
292.396
292.391
292.383
292.374
292.364
292.359
292.357
292.403
292.406
292.407
292.406
292.403
292.399
292.394
292.387
292.379
292.372
292.369
292.368
292.408
292.412
292.413
292.411
292.408
292.403
292.397
292.391
292.385
292.38
292.378
292.379
292.347
292.351
292.354
292.357
292.361
292.366
292.372
292.38
292.388
292.397
292.405
292.411
292.359
292.364
292.368
292.373
292.38
292.387
292.396
292.406
292.417
292.426
292.432
292.434
292.371
292.376
292.382
292.389
292.397
292.407
292.419
292.432
292.445
292.456
292.462
292.46
292.382
292.388
292.395
292.403
292.413
292.425
292.439
292.455
292.471
292.487
292.497
292.493
292.415
292.42
292.421
292.42
292.416
292.41
292.404
292.396
292.388
292.379
292.371
292.369
292.434
292.438
292.438
292.433
292.425
292.416
292.406
292.397
292.388
292.381
292.375
292.373
292.454
292.457
292.456
292.449
292.438
292.424
292.412
292.4
292.391
292.384
292.379
292.377
292.474
292.478
292.476
292.466
292.451
292.435
292.419
292.406
292.395
292.388
292.383
292.381
292.384
292.384
292.385
292.388
292.391
292.396
292.402
292.409
292.417
292.424
292.429
292.428
292.388
292.388
292.39
292.393
292.398
292.404
292.411
292.42
292.43
292.44
292.451
292.469
292.393
292.393
292.396
292.4
292.405
292.412
292.421
292.432
292.444
292.458
292.476
292.506
292.398
292.399
292.402
292.406
292.413
292.421
292.431
292.444
292.459
292.478
292.5
292.537
292.403
292.405
292.408
292.413
292.421
292.43
292.442
292.457
292.475
292.498
292.525
292.567
292.409
292.411
292.415
292.421
292.429
292.439
292.453
292.47
292.491
292.518
292.55
292.596
292.414
292.417
292.421
292.428
292.437
292.449
292.464
292.483
292.507
292.538
292.575
292.627
292.42
292.423
292.428
292.435
292.445
292.458
292.474
292.495
292.522
292.557
292.599
292.658
292.425
292.428
292.434
292.442
292.452
292.466
292.484
292.507
292.537
292.575
292.623
292.691
292.43
292.434
292.44
292.449
292.46
292.474
292.493
292.517
292.55
292.593
292.647
292.727
292.435
292.44
292.446
292.455
292.467
292.482
292.502
292.528
292.563
292.611
292.672
292.764
292.442
292.447
292.455
292.464
292.476
292.492
292.513
292.541
292.58
292.633
292.704
292.808
292.416
292.42
292.419
292.417
292.413
292.407
292.402
292.396
292.391
292.388
292.387
292.388
292.429
292.429
292.427
292.423
292.419
292.413
292.408
292.402
292.398
292.396
292.395
292.397
292.441
292.439
292.436
292.431
292.426
292.42
292.414
292.409
292.405
292.403
292.403
292.406
292.453
292.451
292.446
292.44
292.434
292.427
292.421
292.416
292.413
292.411
292.411
292.414
292.467
292.464
292.458
292.45
292.443
292.436
292.429
292.424
292.421
292.419
292.419
292.421
292.484
292.479
292.471
292.462
292.453
292.445
292.438
292.433
292.429
292.427
292.427
292.429
292.504
292.497
292.486
292.474
292.464
292.455
292.447
292.441
292.437
292.435
292.434
292.436
292.528
292.517
292.502
292.488
292.475
292.465
292.456
292.45
292.445
292.443
292.442
292.442
292.56
292.542
292.521
292.502
292.487
292.475
292.466
292.459
292.453
292.45
292.448
292.449
292.603
292.571
292.541
292.518
292.5
292.486
292.476
292.467
292.461
292.457
292.455
292.455
292.658
292.607
292.564
292.535
292.514
292.498
292.486
292.477
292.47
292.465
292.462
292.461
292.749
292.669
292.6
292.561
292.535
292.515
292.501
292.49
292.482
292.476
292.471
292.47
292.392
292.398
292.406
292.416
292.427
292.441
292.457
292.476
292.496
292.518
292.541
292.56
292.401
292.408
292.416
292.427
292.439
292.454
292.472
292.493
292.518
292.547
292.586
292.662
292.41
292.417
292.425
292.436
292.449
292.465
292.484
292.508
292.536
292.571
292.618
292.703
292.418
292.424
292.433
292.443
292.457
292.473
292.494
292.519
292.55
292.588
292.639
292.719
292.425
292.431
292.439
292.45
292.464
292.48
292.501
292.528
292.56
292.601
292.653
292.73
292.432
292.438
292.446
292.456
292.469
292.486
292.507
292.534
292.568
292.609
292.661
292.737
292.439
292.444
292.451
292.461
292.474
292.491
292.512
292.539
292.573
292.615
292.667
292.743
292.445
292.449
292.456
292.465
292.478
292.494
292.516
292.542
292.577
292.619
292.671
292.748
292.451
292.454
292.461
292.47
292.482
292.498
292.519
292.545
292.579
292.622
292.673
292.753
292.457
292.46
292.465
292.473
292.485
292.501
292.521
292.548
292.581
292.624
292.675
292.758
292.463
292.465
292.47
292.478
292.489
292.504
292.524
292.55
292.582
292.625
292.675
292.76
292.47
292.472
292.476
292.483
292.494
292.508
292.527
292.552
292.583
292.624
292.67
292.759
292.494
292.502
292.498
292.485
292.466
292.446
292.427
292.412
292.4
292.392
292.387
292.384
292.529
292.529
292.52
292.504
292.481
292.458
292.436
292.419
292.406
292.397
292.391
292.389
292.56
292.557
292.544
292.523
292.496
292.469
292.445
292.425
292.411
292.402
292.396
292.393
292.592
292.584
292.567
292.542
292.511
292.48
292.453
292.432
292.417
292.407
292.401
292.398
292.626
292.613
292.591
292.561
292.526
292.491
292.461
292.438
292.422
292.412
292.406
292.404
292.663
292.642
292.615
292.581
292.541
292.502
292.469
292.444
292.427
292.417
292.411
292.409
292.704
292.672
292.639
292.6
292.556
292.512
292.476
292.449
292.432
292.422
292.416
292.414
292.748
292.703
292.664
292.62
292.57
292.522
292.482
292.454
292.436
292.426
292.421
292.419
292.794
292.735
292.688
292.639
292.585
292.531
292.487
292.458
292.44
292.431
292.426
292.424
292.841
292.765
292.712
292.659
292.6
292.54
292.492
292.461
292.444
292.435
292.43
292.429
292.887
292.796
292.738
292.682
292.617
292.55
292.496
292.464
292.447
292.439
292.435
292.434
292.938
292.833
292.77
292.712
292.64
292.561
292.5
292.467
292.451
292.444
292.441
292.44
292.384
292.384
292.385
292.388
292.391
292.396
292.402
292.409
292.417
292.424
292.429
292.428
292.388
292.389
292.39
292.393
292.398
292.404
292.411
292.42
292.43
292.44
292.451
292.469
292.393
292.394
292.396
292.4
292.405
292.412
292.421
292.432
292.444
292.459
292.476
292.506
292.398
292.399
292.402
292.407
292.413
292.421
292.431
292.444
292.46
292.478
292.5
292.537
292.403
292.405
292.408
292.414
292.421
292.43
292.442
292.457
292.475
292.498
292.525
292.567
292.409
292.411
292.415
292.421
292.429
292.44
292.453
292.47
292.491
292.518
292.55
292.596
292.414
292.417
292.421
292.428
292.437
292.449
292.464
292.483
292.507
292.538
292.575
292.627
292.42
292.423
292.428
292.435
292.445
292.458
292.474
292.495
292.522
292.557
292.599
292.658
292.425
292.428
292.434
292.442
292.453
292.466
292.484
292.507
292.537
292.575
292.623
292.692
292.43
292.434
292.44
292.449
292.46
292.474
292.493
292.517
292.55
292.593
292.647
292.727
292.435
292.44
292.446
292.455
292.467
292.482
292.502
292.528
292.563
292.611
292.672
292.764
292.442
292.448
292.455
292.464
292.476
292.492
292.513
292.541
292.58
292.633
292.704
292.808
292.416
292.42
292.419
292.417
292.413
292.408
292.402
292.396
292.391
292.388
292.387
292.388
292.429
292.429
292.427
292.423
292.419
292.413
292.408
292.402
292.398
292.396
292.395
292.397
292.441
292.439
292.436
292.431
292.426
292.42
292.414
292.409
292.405
292.403
292.403
292.406
292.453
292.451
292.446
292.44
292.434
292.427
292.421
292.416
292.413
292.411
292.411
292.414
292.468
292.464
292.458
292.45
292.443
292.436
292.429
292.424
292.421
292.419
292.419
292.421
292.484
292.479
292.471
292.462
292.453
292.445
292.438
292.433
292.429
292.427
292.427
292.429
292.504
292.497
292.486
292.474
292.464
292.455
292.447
292.441
292.437
292.435
292.434
292.436
292.528
292.517
292.502
292.488
292.475
292.465
292.456
292.45
292.445
292.443
292.442
292.442
292.56
292.542
292.521
292.502
292.487
292.475
292.466
292.459
292.453
292.45
292.448
292.449
292.603
292.571
292.541
292.518
292.5
292.486
292.476
292.467
292.461
292.457
292.455
292.455
292.658
292.608
292.564
292.535
292.514
292.498
292.486
292.477
292.47
292.465
292.462
292.461
292.749
292.669
292.6
292.561
292.535
292.515
292.501
292.49
292.482
292.476
292.471
292.47
292.392
292.398
292.406
292.416
292.427
292.441
292.457
292.475
292.496
292.518
292.541
292.56
292.401
292.408
292.416
292.426
292.439
292.454
292.472
292.493
292.518
292.547
292.586
292.662
292.41
292.416
292.425
292.436
292.449
292.465
292.484
292.508
292.536
292.571
292.618
292.702
292.418
292.424
292.433
292.443
292.457
292.473
292.494
292.519
292.55
292.588
292.639
292.719
292.425
292.431
292.439
292.45
292.463
292.48
292.501
292.527
292.56
292.601
292.652
292.729
292.432
292.438
292.445
292.456
292.469
292.486
292.507
292.534
292.567
292.609
292.661
292.737
292.439
292.444
292.451
292.461
292.474
292.49
292.512
292.539
292.573
292.615
292.667
292.742
292.445
292.449
292.456
292.465
292.478
292.494
292.515
292.542
292.576
292.619
292.67
292.748
292.451
292.454
292.461
292.47
292.482
292.498
292.519
292.545
292.579
292.622
292.673
292.753
292.457
292.46
292.465
292.473
292.485
292.501
292.521
292.547
292.581
292.623
292.674
292.758
292.463
292.465
292.47
292.477
292.489
292.504
292.524
292.55
292.582
292.624
292.675
292.76
292.47
292.472
292.476
292.483
292.494
292.508
292.527
292.552
292.582
292.624
292.669
292.759
292.494
292.502
292.498
292.484
292.466
292.446
292.427
292.412
292.4
292.392
292.387
292.384
292.529
292.529
292.52
292.503
292.481
292.457
292.436
292.418
292.406
292.397
292.391
292.389
292.56
292.556
292.543
292.522
292.496
292.469
292.445
292.425
292.411
292.402
292.396
292.393
292.591
292.584
292.567
292.542
292.511
292.48
292.453
292.432
292.417
292.407
292.401
292.398
292.625
292.613
292.591
292.561
292.526
292.491
292.461
292.438
292.422
292.412
292.406
292.403
292.663
292.642
292.615
292.58
292.541
292.502
292.469
292.444
292.427
292.417
292.411
292.409
292.703
292.672
292.639
292.6
292.556
292.512
292.475
292.449
292.432
292.422
292.416
292.414
292.747
292.703
292.663
292.619
292.57
292.522
292.482
292.454
292.436
292.426
292.421
292.419
292.794
292.734
292.688
292.639
292.585
292.531
292.487
292.458
292.44
292.43
292.426
292.424
292.841
292.765
292.712
292.659
292.6
292.54
292.492
292.461
292.443
292.434
292.43
292.429
292.887
292.796
292.737
292.681
292.617
292.549
292.496
292.464
292.447
292.438
292.435
292.434
292.938
292.832
292.77
292.711
292.64
292.561
292.499
292.466
292.451
292.444
292.441
292.44
)
;

boundaryField
{
    rotor
    {
        type            zeroGradient;
    }
    stator
    {
        type            zeroGradient;
    }
    front
    {
        type            empty;
    }
    back
    {
        type            empty;
    }
}


// ************************************************************************* //
