/*--------------------------------*- C++ -*----------------------------------*\
| =========                 |                                                 |
| \\      /  F ield         | OpenFOAM: The Open Source CFD Toolbox           |
|  \\    /   O peration     | Version:  2212                                  |
|   \\  /    A nd           | Website:  www.openfoam.com                      |
|    \\/     M anipulation  |                                                 |
\*---------------------------------------------------------------------------*/
FoamFile
{
    version     2.0;
    format      ascii;
    arch        "LSB;label=32;scalar=64";
    class       volScalarField;
    location    "0.04";
    object      tracer0;
}
// * * * * * * * * * * * * * * * * * * * * * * * * * * * * * * * * * * * * * //

dimensions      [0 0 0 0 0 0 0];

internalField   nonuniform List<scalar> 
3072
(
1.21859e-05
1.21797e-05
1.21328e-05
1.20229e-05
1.19372e-05
1.18068e-05
1.18047e-05
1.21387e-05
1.49999e-05
1.67057e-05
1.68337e-05
1.68721e-05
1.26282e-05
1.25332e-05
1.22938e-05
1.20375e-05
1.18822e-05
1.22117e-05
1.35061e-05
1.54522e-05
1.63032e-05
1.65585e-05
1.64133e-05
1.60863e-05
1.28257e-05
1.26364e-05
1.22381e-05
1.20038e-05
1.24065e-05
1.40181e-05
1.54908e-05
1.59871e-05
1.61118e-05
1.57865e-05
1.47295e-05
1.33458e-05
1.30086e-05
1.26941e-05
1.23303e-05
1.2571e-05
1.38642e-05
1.5226e-05
1.5674e-05
1.57632e-05
1.51962e-05
1.3383e-05
1.11541e-05
9.89472e-06
1.32159e-05
1.32281e-05
1.31156e-05
1.37512e-05
1.49218e-05
1.54068e-05
1.55167e-05
1.50403e-05
1.31567e-05
1.06844e-05
8.85241e-06
7.64005e-06
1.33949e-05
1.36853e-05
1.38594e-05
1.46297e-05
1.51697e-05
1.53242e-05
1.51354e-05
1.3778e-05
1.12799e-05
8.93842e-06
7.42232e-06
6.30936e-06
1.35793e-05
1.41137e-05
1.44287e-05
1.4935e-05
1.5118e-05
1.51249e-05
1.44298e-05
1.25267e-05
1.01558e-05
8.22929e-06
6.95677e-06
5.97736e-06
1.38122e-05
1.4308e-05
1.4629e-05
1.49204e-05
1.5014e-05
1.4854e-05
1.39801e-05
1.2367e-05
1.02428e-05
8.40383e-06
7.154e-06
6.20361e-06
1.7229e-05
1.66205e-05
1.47269e-05
1.47966e-05
1.48176e-05
1.46501e-05
1.40138e-05
1.26339e-05
1.0781e-05
9.0761e-06
7.83977e-06
6.92083e-06
2.10915e-05
1.91759e-05
1.69213e-05
1.48877e-05
1.47381e-05
1.46211e-05
1.42277e-05
1.33466e-05
1.21004e-05
1.07266e-05
9.54345e-06
8.60181e-06
2.32453e-05
2.49964e-05
2.41572e-05
1.82586e-05
1.61809e-05
1.53921e-05
1.49668e-05
1.44284e-05
1.36304e-05
1.26329e-05
1.16952e-05
1.08576e-05
2.76591e-05
2.84806e-05
3.07182e-05
2.95875e-05
2.69799e-05
2.44089e-05
2.21462e-05
2.02432e-05
1.86657e-05
1.74055e-05
1.63038e-05
1.55538e-05
1.68918e-05
1.6929e-05
1.69481e-05
1.69903e-05
1.70276e-05
1.70964e-05
1.71829e-05
1.7284e-05
1.73774e-05
1.74426e-05
1.74711e-05
1.74405e-05
1.57452e-05
1.54177e-05
1.52303e-05
1.51936e-05
1.53098e-05
1.55816e-05
1.59745e-05
1.64883e-05
1.70028e-05
1.7405e-05
1.75932e-05
1.76676e-05
1.23458e-05
1.14682e-05
1.11159e-05
1.09824e-05
1.11249e-05
1.16984e-05
1.2537e-05
1.38156e-05
1.52604e-05
1.6735e-05
1.74764e-05
1.77478e-05
8.61343e-06
7.94e-06
7.48375e-06
7.39886e-06
7.50783e-06
8.06187e-06
8.92875e-06
1.03941e-05
1.25428e-05
1.523e-05
1.71192e-05
1.78005e-05
6.54192e-06
6.07931e-06
5.76347e-06
5.71328e-06
5.87234e-06
6.36748e-06
7.19242e-06
8.54808e-06
1.05603e-05
1.35739e-05
1.66536e-05
1.78639e-05
5.49248e-06
5.12911e-06
4.91539e-06
4.87983e-06
5.10782e-06
5.56331e-06
6.33849e-06
7.64408e-06
9.59677e-06
1.26692e-05
1.62549e-05
1.79225e-05
5.25969e-06
4.86954e-06
4.61225e-06
4.58009e-06
4.84322e-06
5.2918e-06
6.03475e-06
7.31126e-06
9.20476e-06
1.22761e-05
1.60263e-05
1.79887e-05
5.49519e-06
5.09104e-06
4.83913e-06
4.88748e-06
5.0605e-06
5.43695e-06
6.11988e-06
7.34601e-06
9.19107e-06
1.22285e-05
1.59496e-05
1.80505e-05
6.23778e-06
5.81099e-06
5.63001e-06
5.75073e-06
6.01722e-06
6.51451e-06
7.33125e-06
8.72689e-06
1.06219e-05
1.34162e-05
1.65614e-05
1.81709e-05
7.98869e-06
7.49931e-06
7.4156e-06
7.61281e-06
7.96504e-06
8.55307e-06
9.4517e-06
1.08565e-05
1.26397e-05
1.50737e-05
1.73303e-05
1.83549e-05
1.03349e-05
1.00022e-05
1.01219e-05
1.04948e-05
1.10513e-05
1.1863e-05
1.30461e-05
1.46295e-05
1.64094e-05
1.7696e-05
1.84008e-05
1.85682e-05
1.49175e-05
1.48089e-05
1.51867e-05
1.574e-05
1.64447e-05
1.72812e-05
1.80444e-05
1.85126e-05
1.87623e-05
1.88109e-05
1.87794e-05
1.8658e-05
1.42766e-05
1.42703e-05
1.42225e-05
1.411e-05
1.40225e-05
1.38875e-05
1.38869e-05
1.42359e-05
1.72356e-05
1.90166e-05
1.91495e-05
1.91808e-05
1.47288e-05
1.46326e-05
1.43895e-05
1.4127e-05
1.39679e-05
1.43112e-05
1.56622e-05
1.76528e-05
1.85196e-05
1.87719e-05
1.84708e-05
1.79642e-05
1.49301e-05
1.47389e-05
1.43337e-05
1.40935e-05
1.45088e-05
1.61723e-05
1.7682e-05
1.81894e-05
1.83154e-05
1.79652e-05
1.69452e-05
1.5964e-05
1.51158e-05
1.48e-05
1.44279e-05
1.46761e-05
1.60058e-05
1.74123e-05
1.78766e-05
1.79701e-05
1.74226e-05
1.56792e-05
1.3411e-05
1.17336e-05
1.53272e-05
1.53466e-05
1.5233e-05
1.58885e-05
1.71009e-05
1.76061e-05
1.77226e-05
1.72683e-05
1.53796e-05
1.26713e-05
1.03603e-05
8.51014e-06
1.55064e-05
1.58179e-05
1.6001e-05
1.67957e-05
1.73601e-05
1.75222e-05
1.73393e-05
1.59721e-05
1.32773e-05
1.04358e-05
8.27489e-06
6.56021e-06
1.56859e-05
1.62371e-05
1.65814e-05
1.71135e-05
1.73094e-05
1.73237e-05
1.66164e-05
1.45996e-05
1.19174e-05
9.46797e-06
7.59221e-06
6.08094e-06
1.58316e-05
1.64963e-05
1.6809e-05
1.70953e-05
1.71892e-05
1.70272e-05
1.61303e-05
1.44074e-05
1.20116e-05
9.69367e-06
7.88606e-06
6.42833e-06
1.58665e-05
1.65345e-05
1.68235e-05
1.69985e-05
1.70176e-05
1.68331e-05
1.61613e-05
1.46949e-05
1.26305e-05
1.05499e-05
8.85799e-06
7.49059e-06
1.58801e-05
1.6496e-05
1.67286e-05
1.68266e-05
1.68578e-05
1.67518e-05
1.64153e-05
1.56189e-05
1.42052e-05
1.25509e-05
1.1035e-05
9.73069e-06
1.57564e-05
1.63145e-05
1.64444e-05
1.64501e-05
1.65158e-05
1.65392e-05
1.6449e-05
1.62503e-05
1.58529e-05
1.50848e-05
1.4307e-05
1.34e-05
1.57554e-05
1.5871e-05
1.59503e-05
1.59916e-05
1.60238e-05
1.60593e-05
1.61057e-05
1.61145e-05
1.60553e-05
1.58225e-05
1.5629e-05
1.5267e-05
1.92084e-05
1.92396e-05
1.9282e-05
1.93166e-05
1.93788e-05
1.94529e-05
1.95355e-05
1.93353e-05
1.92929e-05
1.92775e-05
1.95025e-05
1.9849e-05
1.7511e-05
1.7099e-05
1.6892e-05
1.68252e-05
1.69194e-05
1.71039e-05
1.72785e-05
1.72271e-05
1.72491e-05
1.72692e-05
1.733e-05
1.74195e-05
1.49917e-05
1.42731e-05
1.38715e-05
1.38233e-05
1.40231e-05
1.47726e-05
1.55506e-05
1.60179e-05
1.6326e-05
1.64848e-05
1.65421e-05
1.65557e-05
1.00594e-05
9.04498e-06
8.33134e-06
8.18777e-06
8.34444e-06
9.19473e-06
1.06426e-05
1.31523e-05
1.47721e-05
1.56597e-05
1.60216e-05
1.61229e-05
6.97434e-06
6.17214e-06
5.71074e-06
5.62794e-06
5.83267e-06
6.52308e-06
7.63082e-06
9.38593e-06
1.21284e-05
1.44589e-05
1.53677e-05
1.56488e-05
5.37223e-06
4.76828e-06
4.4673e-06
4.41257e-06
4.74171e-06
5.39534e-06
6.47806e-06
8.14913e-06
1.05193e-05
1.33016e-05
1.47805e-05
1.52998e-05
5.02097e-06
4.39421e-06
4.0131e-06
3.96505e-06
4.35654e-06
5.00862e-06
6.0744e-06
7.73145e-06
1.01268e-05
1.26929e-05
1.44449e-05
1.50899e-05
5.37672e-06
4.74147e-06
4.35533e-06
4.42428e-06
4.67279e-06
5.20813e-06
6.19979e-06
7.77169e-06
1.01226e-05
1.26714e-05
1.44667e-05
1.51747e-05
6.47681e-06
5.82792e-06
5.53657e-06
5.70396e-06
6.07369e-06
6.75148e-06
7.86338e-06
9.54291e-06
1.16868e-05
1.36056e-05
1.48005e-05
1.52008e-05
8.85947e-06
8.15926e-06
8.05721e-06
8.33265e-06
8.78977e-06
9.49114e-06
1.04847e-05
1.19e-05
1.3306e-05
1.43641e-05
1.50437e-05
1.53149e-05
1.28107e-05
1.22682e-05
1.21747e-05
1.23886e-05
1.2739e-05
1.32216e-05
1.38367e-05
1.44863e-05
1.4967e-05
1.52734e-05
1.54271e-05
1.53864e-05
1.50695e-05
1.48277e-05
1.4834e-05
1.4955e-05
1.51247e-05
1.52988e-05
1.54547e-05
1.5573e-05
1.56153e-05
1.55976e-05
1.55516e-05
1.54269e-05
5.11288e-05
5.12304e-05
5.1999e-05
5.32502e-05
5.42787e-05
5.54853e-05
5.4734e-05
5.05533e-05
2.48586e-05
1.14568e-05
1.06926e-05
1.06874e-05
4.65694e-05
4.86318e-05
5.1668e-05
5.43234e-05
5.57059e-05
5.19736e-05
3.93562e-05
2.15251e-05
1.31911e-05
1.05213e-05
1.01673e-05
9.90214e-06
4.4466e-05
4.8705e-05
5.30238e-05
5.53232e-05
5.12456e-05
3.68851e-05
1.9515e-05
1.28654e-05
1.0244e-05
9.24915e-06
8.40951e-06
7.13269e-06
4.22537e-05
4.92113e-05
5.29724e-05
5.0447e-05
3.90347e-05
2.07737e-05
1.29885e-05
9.81256e-06
8.39725e-06
7.09077e-06
5.67008e-06
4.54711e-06
3.96841e-05
4.43303e-05
4.59756e-05
3.93865e-05
2.3871e-05
1.40253e-05
9.9638e-06
8.13718e-06
6.85104e-06
5.2936e-06
3.98365e-06
3.12789e-06
3.55789e-05
3.84123e-05
3.70175e-05
2.6629e-05
1.62129e-05
1.08672e-05
8.4929e-06
7.12758e-06
5.67796e-06
4.09852e-06
3.03511e-06
2.3443e-06
2.88374e-05
2.99133e-05
2.76498e-05
1.89178e-05
1.24097e-05
9.3657e-06
7.64783e-06
6.33875e-06
4.93255e-06
3.60716e-06
2.73529e-06
2.14281e-06
2.63443e-05
2.52677e-05
2.14904e-05
1.42672e-05
1.06698e-05
8.5383e-06
7.23148e-06
6.19769e-06
4.97309e-06
3.7228e-06
2.86494e-06
2.27716e-06
2.53437e-05
2.2013e-05
1.65739e-05
1.17932e-05
9.72617e-06
8.31355e-06
7.27533e-06
6.3437e-06
5.28104e-06
4.15997e-06
3.31418e-06
2.71765e-06
2.31599e-05
1.79282e-05
1.40286e-05
1.11542e-05
9.78493e-06
8.5215e-06
7.57128e-06
6.77565e-06
5.97259e-06
5.12895e-06
4.37394e-06
3.75588e-06
2.28372e-05
1.81362e-05
1.49065e-05
1.23906e-05
1.09574e-05
9.71271e-06
8.68341e-06
7.86201e-06
7.15826e-06
6.44226e-06
5.80075e-06
5.23884e-06
2.22049e-05
2.09095e-05
1.95007e-05
1.81733e-05
1.68782e-05
1.54895e-05
1.39589e-05
1.24509e-05
1.10885e-05
9.99377e-06
9.04846e-06
8.45287e-06
1.07322e-05
1.07513e-05
1.07887e-05
1.08137e-05
1.08632e-05
1.09339e-05
1.10292e-05
1.11441e-05
1.12603e-05
1.13455e-05
1.13833e-05
1.13625e-05
9.50735e-06
9.17888e-06
8.95742e-06
8.91924e-06
9.02312e-06
9.26826e-06
9.64548e-06
1.01573e-05
1.0732e-05
1.12453e-05
1.15015e-05
1.15985e-05
6.26279e-06
5.62184e-06
5.32337e-06
5.22207e-06
5.31756e-06
5.71953e-06
6.35745e-06
7.38945e-06
8.72258e-06
1.03036e-05
1.13168e-05
1.1681e-05
3.8371e-06
3.30672e-06
3.07787e-06
3.00792e-06
3.07426e-06
3.41787e-06
3.96062e-06
4.89163e-06
6.31184e-06
8.48441e-06
1.08277e-05
1.17393e-05
2.53709e-06
2.16644e-06
2.01093e-06
1.97945e-06
2.06974e-06
2.36708e-06
2.86798e-06
3.71767e-06
5.10796e-06
7.10129e-06
1.01734e-05
1.18104e-05
1.87593e-06
1.61551e-06
1.50662e-06
1.48476e-06
1.61302e-06
1.87993e-06
2.34431e-06
3.10081e-06
4.42765e-06
6.43644e-06
9.58613e-06
1.18798e-05
1.72784e-06
1.47126e-06
1.32908e-06
1.30994e-06
1.45818e-06
1.71779e-06
2.16682e-06
2.88407e-06
4.17001e-06
6.13902e-06
9.30514e-06
1.19576e-05
1.86504e-06
1.60826e-06
1.45861e-06
1.48509e-06
1.58322e-06
1.80207e-06
2.22874e-06
2.89472e-06
4.16279e-06
6.10473e-06
9.22259e-06
1.20296e-05
2.3043e-06
2.04243e-06
1.92309e-06
1.99155e-06
2.14648e-06
2.44398e-06
2.96134e-06
3.75949e-06
5.12191e-06
6.94052e-06
9.73651e-06
1.21776e-05
3.35327e-06
3.04691e-06
2.98273e-06
3.104e-06
3.32564e-06
3.70583e-06
4.29601e-06
5.18079e-06
6.53845e-06
8.24159e-06
1.05789e-05
1.24503e-05
4.88105e-06
4.64603e-06
4.72125e-06
4.97626e-06
5.36958e-06
5.95082e-06
6.75043e-06
7.85091e-06
9.36751e-06
1.08448e-05
1.22327e-05
1.28718e-05
7.95018e-06
7.91629e-06
8.21734e-06
8.6946e-06
9.34157e-06
1.01349e-05
1.11139e-05
1.20116e-05
1.26352e-05
1.29607e-05
1.31989e-05
1.30982e-05
1.41937e-05
1.41871e-05
1.41481e-05
1.40488e-05
1.39676e-05
1.38404e-05
1.38416e-05
1.41772e-05
1.70545e-05
1.87662e-05
1.88947e-05
1.89257e-05
1.46229e-05
1.45501e-05
1.4346e-05
1.40948e-05
1.39453e-05
1.42824e-05
1.56475e-05
1.7479e-05
1.82758e-05
1.85188e-05
1.82088e-05
1.77002e-05
1.48128e-05
1.46748e-05
1.43247e-05
1.40936e-05
1.44913e-05
1.61499e-05
1.74189e-05
1.78137e-05
1.79076e-05
1.71901e-05
1.54396e-05
1.35921e-05
1.49833e-05
1.47867e-05
1.44391e-05
1.46765e-05
1.6e-05
1.71026e-05
1.74065e-05
1.74451e-05
1.64272e-05
1.35794e-05
1.1008e-05
9.41134e-06
1.51701e-05
1.52865e-05
1.52299e-05
1.58433e-05
1.67656e-05
1.70933e-05
1.71449e-05
1.62529e-05
1.34103e-05
1.03686e-05
8.30929e-06
6.77217e-06
1.52876e-05
1.56713e-05
1.5855e-05
1.64973e-05
1.68606e-05
1.6963e-05
1.65354e-05
1.44375e-05
1.10586e-05
8.37145e-06
6.60735e-06
5.20633e-06
1.54309e-05
1.59695e-05
1.62569e-05
1.66448e-05
1.67799e-05
1.66403e-05
1.54757e-05
1.27737e-05
9.72648e-06
7.55692e-06
6.04554e-06
4.81296e-06
1.55414e-05
1.61325e-05
1.63993e-05
1.65812e-05
1.66057e-05
1.62221e-05
1.48849e-05
1.26014e-05
9.84559e-06
7.75733e-06
6.28313e-06
5.09156e-06
1.55563e-05
1.61248e-05
1.63498e-05
1.64325e-05
1.63999e-05
1.59847e-05
1.49659e-05
1.29789e-05
1.05297e-05
8.53861e-06
7.09556e-06
5.95696e-06
1.55616e-05
1.6064e-05
1.62107e-05
1.62491e-05
1.6225e-05
1.59933e-05
1.54188e-05
1.41688e-05
1.22801e-05
1.03768e-05
8.88729e-06
7.74098e-06
1.54954e-05
1.58792e-05
1.59213e-05
1.59409e-05
1.59539e-05
1.59009e-05
1.57528e-05
1.54135e-05
1.47886e-05
1.3708e-05
1.27358e-05
1.16136e-05
1.51996e-05
1.53389e-05
1.52979e-05
1.52856e-05
1.52921e-05
1.53837e-05
1.54419e-05
1.53696e-05
1.52602e-05
1.50375e-05
1.47499e-05
1.4389e-05
1.89527e-05
1.89843e-05
1.902e-05
1.907e-05
1.91346e-05
1.92292e-05
1.93689e-05
1.95265e-05
1.96923e-05
1.98012e-05
1.98511e-05
1.9848e-05
1.7132e-05
1.66031e-05
1.6277e-05
1.61981e-05
1.63506e-05
1.67143e-05
1.72818e-05
1.80481e-05
1.88992e-05
1.96128e-05
1.99574e-05
2.00878e-05
1.21771e-05
1.11272e-05
1.06487e-05
1.04777e-05
1.06342e-05
1.12658e-05
1.22485e-05
1.38499e-05
1.5922e-05
1.83349e-05
1.96679e-05
2.01712e-05
7.93096e-06
7.16144e-06
6.63397e-06
6.53619e-06
6.65917e-06
7.31013e-06
8.27864e-06
9.84e-06
1.20527e-05
1.56677e-05
1.89761e-05
2.02374e-05
5.55115e-06
4.95269e-06
4.57827e-06
4.51443e-06
4.69955e-06
5.32959e-06
6.3676e-06
7.94416e-06
1.00393e-05
1.34323e-05
1.80562e-05
2.03187e-05
4.26935e-06
3.77187e-06
3.508e-06
3.45842e-06
3.72909e-06
4.28665e-06
5.2483e-06
6.92701e-06
8.91112e-06
1.23439e-05
1.7206e-05
2.0403e-05
3.97207e-06
3.45301e-06
3.12537e-06
3.07848e-06
3.39805e-06
3.94121e-06
4.85105e-06
6.54986e-06
8.47741e-06
1.18544e-05
1.67845e-05
2.04966e-05
4.25289e-06
3.73453e-06
3.40648e-06
3.45916e-06
3.65867e-06
4.10159e-06
4.91241e-06
6.6178e-06
8.45841e-06
1.17885e-05
1.6652e-05
2.05844e-05
5.13264e-06
4.60637e-06
4.3601e-06
4.49551e-06
4.80594e-06
5.40077e-06
6.39785e-06
8.33159e-06
9.93913e-06
1.31285e-05
1.70314e-05
2.068e-05
7.00365e-06
6.41949e-06
6.38331e-06
6.65675e-06
7.11867e-06
7.86502e-06
8.97472e-06
1.07612e-05
1.17626e-05
1.42036e-05
1.59931e-05
1.94524e-05
1.10167e-05
1.04043e-05
1.04391e-05
1.07601e-05
1.12131e-05
1.18131e-05
1.2403e-05
1.28949e-05
1.30554e-05
1.42035e-05
1.55957e-05
1.88873e-05
1.40771e-05
1.38491e-05
1.37253e-05
1.36907e-05
1.36431e-05
1.36376e-05
1.35491e-05
1.35108e-05
1.33707e-05
1.41049e-05
1.5123e-05
1.80995e-05
1.81604e-05
1.91798e-05
2.21464e-05
2.25458e-05
2.32783e-05
2.34643e-05
2.32846e-05
2.30463e-05
2.25596e-05
2.20713e-05
2.15032e-05
2.1075e-05
1.55197e-05
1.61394e-05
1.8066e-05
1.83786e-05
1.86584e-05
1.90949e-05
1.96762e-05
2.02747e-05
2.07211e-05
2.09856e-05
2.09702e-05
2.08812e-05
1.24665e-05
1.41397e-05
1.44104e-05
1.46853e-05
1.49836e-05
1.52974e-05
1.56634e-05
1.60429e-05
1.64494e-05
1.68418e-05
1.72329e-05
1.73977e-05
1.12907e-05
1.14367e-05
1.16322e-05
1.18259e-05
1.20911e-05
1.2364e-05
1.27332e-05
1.30936e-05
1.35275e-05
1.38305e-05
1.40636e-05
1.39033e-05
2.06736e-05
2.05079e-05
2.03562e-05
2.02065e-05
2.00543e-05
1.9882e-05
1.9691e-05
1.94675e-05
1.9231e-05
1.89936e-05
1.88003e-05
1.86912e-05
2.07307e-05
2.05292e-05
2.02615e-05
1.99216e-05
1.94975e-05
1.90352e-05
1.84698e-05
1.79343e-05
1.74002e-05
1.69683e-05
1.66569e-05
1.68886e-05
1.72204e-05
1.68829e-05
1.64374e-05
1.59072e-05
1.53021e-05
1.46807e-05
1.3964e-05
1.336e-05
1.27824e-05
1.24494e-05
1.22402e-05
1.25029e-05
1.33346e-05
1.2716e-05
1.20706e-05
1.14387e-05
1.0958e-05
1.04122e-05
1.01406e-05
9.91239e-06
9.84699e-06
9.82778e-06
9.79599e-06
9.88806e-06
1.85429e-05
1.82096e-05
1.8053e-05
1.78539e-05
1.76586e-05
1.73913e-05
1.71805e-05
1.69231e-05
1.67568e-05
1.65915e-05
1.64612e-05
1.63139e-05
1.72013e-05
1.72989e-05
1.73643e-05
1.73669e-05
1.7344e-05
1.72867e-05
1.72068e-05
1.71309e-05
1.70578e-05
1.69801e-05
1.6897e-05
1.68087e-05
1.29165e-05
1.3308e-05
1.37035e-05
1.40729e-05
1.4462e-05
1.48378e-05
1.52393e-05
1.55755e-05
1.58241e-05
1.59769e-05
1.60564e-05
1.6017e-05
1.00443e-05
1.02112e-05
1.04083e-05
1.06298e-05
1.08978e-05
1.12083e-05
1.15768e-05
1.19791e-05
1.24414e-05
1.28336e-05
1.3115e-05
1.29747e-05
1.62046e-05
1.61326e-05
1.61197e-05
1.61196e-05
1.61085e-05
1.60421e-05
1.5978e-05
1.58745e-05
1.57775e-05
1.56451e-05
1.55569e-05
1.54494e-05
1.67385e-05
1.66507e-05
1.65332e-05
1.63789e-05
1.61905e-05
1.59558e-05
1.56943e-05
1.5393e-05
1.5096e-05
1.48398e-05
1.46351e-05
1.47378e-05
1.58465e-05
1.5596e-05
1.52714e-05
1.48716e-05
1.44208e-05
1.3888e-05
1.33623e-05
1.27965e-05
1.2339e-05
1.20249e-05
1.18473e-05
1.20363e-05
1.24675e-05
1.19161e-05
1.13305e-05
1.08025e-05
1.02721e-05
9.90789e-06
9.57092e-06
9.42889e-06
9.36537e-06
9.34884e-06
9.32183e-06
9.40505e-06
1.56243e-05
1.62073e-05
1.6326e-05
1.65145e-05
1.65035e-05
1.64196e-05
1.62134e-05
1.58932e-05
1.53764e-05
1.48843e-05
1.42687e-05
1.38353e-05
1.47677e-05
1.49026e-05
1.50004e-05
1.51119e-05
1.52154e-05
1.53741e-05
1.55353e-05
1.55613e-05
1.54916e-05
1.54193e-05
1.53151e-05
1.51804e-05
1.23477e-05
1.25245e-05
1.27532e-05
1.29175e-05
1.31567e-05
1.3333e-05
1.3602e-05
1.38409e-05
1.41289e-05
1.43113e-05
1.44206e-05
1.4389e-05
9.56861e-06
9.71335e-06
9.89511e-06
1.00733e-05
1.03005e-05
1.05418e-05
1.08383e-05
1.11466e-05
1.14811e-05
1.17633e-05
1.19704e-05
1.1852e-05
1.34288e-05
1.33357e-05
1.34173e-05
1.35564e-05
1.36857e-05
1.37684e-05
1.37989e-05
1.37669e-05
1.37195e-05
1.36234e-05
1.35789e-05
1.3429e-05
1.50766e-05
1.49746e-05
1.48406e-05
1.46928e-05
1.45096e-05
1.43131e-05
1.40849e-05
1.38601e-05
1.36252e-05
1.34352e-05
1.32774e-05
1.32451e-05
1.42416e-05
1.40298e-05
1.37589e-05
1.3429e-05
1.30568e-05
1.26308e-05
1.21931e-05
1.17287e-05
1.13549e-05
1.10997e-05
1.09543e-05
1.11204e-05
1.1437e-05
1.09987e-05
1.0548e-05
1.01266e-05
9.76318e-06
9.41794e-06
9.23277e-06
9.08485e-06
9.04542e-06
9.03344e-06
9.00763e-06
9.07349e-06
1.3448e-05
1.3574e-05
1.3581e-05
1.3636e-05
1.36641e-05
1.37824e-05
1.39094e-05
1.41392e-05
1.4299e-05
1.44675e-05
1.44629e-05
1.44064e-05
1.32222e-05
1.32156e-05
1.32063e-05
1.32152e-05
1.32131e-05
1.32463e-05
1.32883e-05
1.33396e-05
1.34096e-05
1.34639e-05
1.35239e-05
1.35533e-05
1.13816e-05
1.15635e-05
1.17434e-05
1.18879e-05
1.20461e-05
1.21751e-05
1.23081e-05
1.24192e-05
1.2533e-05
1.26087e-05
1.26708e-05
1.26432e-05
9.18676e-06
9.30119e-06
9.4303e-06
9.56845e-06
9.72843e-06
9.91039e-06
1.01299e-05
1.03667e-05
1.06052e-05
1.08109e-05
1.09224e-05
1.08417e-05
1.4343e-05
1.42673e-05
1.4156e-05
1.40431e-05
1.3897e-05
1.3756e-05
1.35823e-05
1.34237e-05
1.31441e-05
1.35594e-05
1.45638e-05
1.55867e-05
1.34992e-05
1.34059e-05
1.32862e-05
1.3134e-05
1.29484e-05
1.27364e-05
1.24927e-05
1.22521e-05
1.19205e-05
1.22181e-05
1.31704e-05
1.38239e-05
1.25323e-05
1.23728e-05
1.21759e-05
1.19432e-05
1.16749e-05
1.13601e-05
1.10289e-05
1.0693e-05
1.04996e-05
1.0332e-05
1.06649e-05
1.18887e-05
1.06116e-05
1.03573e-05
1.01104e-05
9.88315e-06
9.69411e-06
9.58183e-06
9.55772e-06
9.55505e-06
9.57836e-06
9.57677e-06
9.56273e-06
9.97682e-06
1.02097e-05
1.00071e-05
9.85544e-06
9.53983e-06
9.26807e-06
8.81667e-06
8.40017e-06
7.81993e-06
7.31987e-06
6.71796e-06
6.33204e-06
6.11736e-06
7.22221e-06
6.98027e-06
6.6115e-06
6.29394e-06
5.87869e-06
5.50112e-06
5.08924e-06
4.73587e-06
4.43529e-06
4.23678e-06
4.17981e-06
4.25694e-06
4.51323e-06
4.28074e-06
3.9932e-06
3.72802e-06
3.41742e-06
3.1522e-06
2.86525e-06
2.6505e-06
2.44787e-06
2.34384e-06
2.29963e-06
2.39401e-06
2.61612e-06
2.45564e-06
2.24838e-06
2.06889e-06
1.85751e-06
1.68766e-06
1.5028e-06
1.37554e-06
1.25165e-06
1.20135e-06
1.18e-06
1.27451e-06
6.23526e-06
6.46401e-06
6.87711e-06
7.36369e-06
7.87745e-06
8.34026e-06
8.69921e-06
8.96021e-06
9.14372e-06
9.2708e-06
9.3256e-06
9.34746e-06
4.53152e-06
4.90702e-06
5.24955e-06
5.64116e-06
6.02417e-06
6.39381e-06
6.72408e-06
7.00341e-06
7.23308e-06
7.359e-06
7.37468e-06
7.17698e-06
2.61927e-06
2.97759e-06
3.25492e-06
3.55731e-06
3.85629e-06
4.1416e-06
4.39843e-06
4.63042e-06
4.7875e-06
4.85302e-06
4.78805e-06
4.61554e-06
1.45206e-06
1.76313e-06
1.9357e-06
2.12898e-06
2.32121e-06
2.50826e-06
2.68503e-06
2.82978e-06
2.92109e-06
2.94911e-06
2.87321e-06
2.75924e-06
9.30787e-06
9.23125e-06
9.09718e-06
8.88013e-06
8.62855e-06
8.28659e-06
7.90201e-06
7.4364e-06
6.96799e-06
6.49494e-06
6.16676e-06
5.96964e-06
6.92298e-06
6.65112e-06
6.34172e-06
6.04757e-06
5.69464e-06
5.35024e-06
4.98594e-06
4.66588e-06
4.391e-06
4.21616e-06
4.15904e-06
4.24357e-06
4.40711e-06
4.18341e-06
3.92729e-06
3.66982e-06
3.38927e-06
3.12589e-06
2.86267e-06
2.64371e-06
2.45648e-06
2.34492e-06
2.31072e-06
2.39761e-06
2.59455e-06
2.43742e-06
2.23903e-06
2.0604e-06
1.85705e-06
1.68371e-06
1.50596e-06
1.37161e-06
1.25452e-06
1.19578e-06
1.18129e-06
1.27074e-06
6.08331e-06
6.31439e-06
6.69292e-06
7.14589e-06
7.60892e-06
8.02678e-06
8.34708e-06
8.5803e-06
8.74355e-06
8.85843e-06
8.90967e-06
8.93199e-06
4.50576e-06
4.87108e-06
5.20034e-06
5.57384e-06
5.93671e-06
6.28435e-06
6.59276e-06
6.85168e-06
7.06559e-06
7.18424e-06
7.20259e-06
7.03281e-06
2.63126e-06
2.98534e-06
3.26119e-06
3.56084e-06
3.85592e-06
4.13632e-06
4.38757e-06
4.61314e-06
4.76701e-06
4.8328e-06
4.77668e-06
4.6116e-06
1.45017e-06
1.76202e-06
1.93561e-06
2.12998e-06
2.32318e-06
2.51093e-06
2.68793e-06
2.83333e-06
2.9255e-06
2.95484e-06
2.88263e-06
2.76894e-06
8.90372e-06
8.83031e-06
8.71642e-06
8.51804e-06
8.30706e-06
7.99967e-06
7.67455e-06
7.26258e-06
6.86899e-06
6.46173e-06
6.18603e-06
6.036e-06
6.80389e-06
6.56728e-06
6.28923e-06
6.02807e-06
5.70293e-06
5.38994e-06
5.05146e-06
4.75401e-06
4.49528e-06
4.32935e-06
4.27794e-06
4.3674e-06
4.41536e-06
4.19874e-06
3.95157e-06
3.69795e-06
3.42125e-06
3.15727e-06
2.8917e-06
2.66731e-06
2.47399e-06
2.35638e-06
2.31919e-06
2.40651e-06
2.60735e-06
2.44924e-06
2.25245e-06
2.07144e-06
1.86835e-06
1.69191e-06
1.514e-06
1.37731e-06
1.26101e-06
1.20168e-06
1.18903e-06
1.27899e-06
6.1433e-06
6.42653e-06
6.8035e-06
7.2307e-06
7.65768e-06
8.01232e-06
8.28491e-06
8.48132e-06
8.61712e-06
8.71457e-06
8.7621e-06
8.79214e-06
4.63841e-06
5.01381e-06
5.35289e-06
5.73405e-06
6.10218e-06
6.45112e-06
6.75625e-06
7.00907e-06
7.21768e-06
7.33604e-06
7.36047e-06
7.21298e-06
2.64728e-06
3.01066e-06
3.29548e-06
3.60524e-06
3.91026e-06
4.19996e-06
4.45925e-06
4.69178e-06
4.84913e-06
4.91564e-06
4.8557e-06
4.68532e-06
1.4606e-06
1.77693e-06
1.95284e-06
2.14966e-06
2.34555e-06
2.53617e-06
2.71623e-06
2.86377e-06
2.95689e-06
2.98569e-06
2.90934e-06
2.79304e-06
8.80124e-06
8.78402e-06
8.73425e-06
8.64537e-06
8.4959e-06
8.26446e-06
7.98772e-06
7.6675e-06
7.33655e-06
7.03071e-06
6.81812e-06
6.76967e-06
6.99168e-06
6.75258e-06
6.44678e-06
6.12801e-06
5.76763e-06
5.43275e-06
5.0745e-06
4.74459e-06
4.45065e-06
4.24767e-06
4.1633e-06
4.23847e-06
4.47752e-06
4.2511e-06
3.98949e-06
3.72709e-06
3.44396e-06
3.17621e-06
2.90779e-06
2.68289e-06
2.49257e-06
2.37939e-06
2.34728e-06
2.43535e-06
2.62572e-06
2.46488e-06
2.26289e-06
2.08032e-06
1.87326e-06
1.69565e-06
1.51442e-06
1.37662e-06
1.25734e-06
1.19643e-06
1.1814e-06
1.27104e-06
7.0286e-06
7.47101e-06
7.94038e-06
8.41666e-06
8.84438e-06
9.20438e-06
9.4864e-06
9.699e-06
9.85494e-06
9.96732e-06
1.00369e-05
1.01224e-05
4.52703e-06
4.96254e-06
5.38085e-06
5.84897e-06
6.31369e-06
6.75363e-06
7.13788e-06
7.45761e-06
7.71529e-06
7.85462e-06
7.869e-06
7.5925e-06
2.67079e-06
3.03143e-06
3.31536e-06
3.62946e-06
3.94424e-06
4.24861e-06
4.52551e-06
4.77788e-06
4.94737e-06
5.0159e-06
4.93587e-06
4.74439e-06
1.45334e-06
1.76989e-06
1.94666e-06
2.14465e-06
2.34202e-06
2.5347e-06
2.71757e-06
2.86749e-06
2.96193e-06
2.9901e-06
2.90803e-06
2.78948e-06
1.18022e-06
1.07628e-06
9.18568e-07
8.05512e-07
6.50295e-07
5.47554e-07
4.13636e-07
3.37872e-07
2.39644e-07
2.01986e-07
1.57216e-07
1.66245e-07
3.81989e-07
3.25659e-07
2.5081e-07
2.02283e-07
1.36335e-07
1.0589e-07
5.73709e-08
4.87787e-08
2.3093e-08
2.62667e-08
2.00164e-08
2.1802e-08
8.56513e-08
6.46446e-08
4.46066e-08
3.11119e-08
1.68406e-08
1.2744e-08
5.35285e-09
5.85722e-09
3.66119e-09
4.19921e-09
3.77824e-09
4.01001e-09
1.24023e-08
8.41806e-09
4.90361e-09
3.15717e-09
1.48786e-09
1.54325e-09
9.37058e-10
1.05291e-09
8.92866e-10
9.67288e-10
9.64661e-10
9.84796e-10
1.23032e-09
7.92244e-10
4.7674e-10
4.02902e-10
2.85603e-10
3.12558e-10
2.62977e-10
2.83071e-10
2.76874e-10
2.84895e-10
2.89225e-10
2.934e-10
1.47227e-10
1.13383e-10
1.03335e-10
9.65726e-11
9.19434e-11
9.35106e-11
9.07005e-11
9.28597e-11
9.36129e-11
9.52514e-11
9.69226e-11
9.80922e-11
3.56231e-11
3.21111e-11
3.29383e-11
3.2224e-11
3.23661e-11
3.24357e-11
3.25142e-11
3.28482e-11
3.32523e-11
3.37911e-11
3.43484e-11
3.46851e-11
1.15408e-11
1.14703e-11
1.15768e-11
1.1594e-11
1.16415e-11
1.16936e-11
1.17704e-11
1.18835e-11
1.20295e-11
1.2202e-11
1.23738e-11
1.24663e-11
4.08694e-12
4.1197e-12
4.15138e-12
4.17164e-12
4.19353e-12
4.21644e-12
4.24643e-12
4.28384e-12
4.32991e-12
4.38041e-12
4.4295e-12
4.45267e-12
1.45509e-12
1.46723e-12
1.47793e-12
1.4854e-12
1.49328e-12
1.50093e-12
1.51034e-12
1.52112e-12
1.53391e-12
1.5471e-12
1.55976e-12
1.56505e-12
5.2455e-13
5.27854e-13
5.30916e-13
5.33081e-13
5.35377e-13
5.37473e-13
5.39936e-13
5.42515e-13
5.45474e-13
5.4833e-13
5.51009e-13
5.51914e-13
2.33609e-13
2.34421e-13
2.35151e-13
2.35807e-13
2.3642e-13
2.36983e-13
2.37499e-13
2.3795e-13
2.38323e-13
2.38595e-13
2.38765e-13
2.38831e-13
6.61103e-07
8.00845e-07
8.89363e-07
1.00045e-06
1.11539e-06
1.23359e-06
1.33869e-06
1.4193e-06
1.46396e-06
1.46626e-06
1.38718e-06
1.31375e-06
3.35136e-07
3.16499e-07
3.42978e-07
3.83934e-07
4.2876e-07
4.75885e-07
5.16839e-07
5.46691e-07
5.59304e-07
5.42885e-07
5.00415e-07
4.51749e-07
1.53013e-07
9.93037e-08
1.08339e-07
1.18731e-07
1.30312e-07
1.42371e-07
1.51845e-07
1.57303e-07
1.57211e-07
1.44756e-07
1.29851e-07
1.07735e-07
6.46637e-08
2.47304e-08
2.69665e-08
2.85586e-08
3.03879e-08
3.21693e-08
3.31563e-08
3.30778e-08
3.06884e-08
2.78665e-08
2.27628e-08
1.7802e-08
2.66345e-08
4.82306e-09
5.31164e-09
5.39703e-09
5.5113e-09
5.55697e-09
5.31881e-09
4.88553e-09
4.27294e-09
3.58246e-09
2.7711e-09
1.94982e-09
1.12626e-08
7.88495e-10
8.74766e-10
8.38023e-10
8.31759e-10
7.60224e-10
6.9102e-10
5.80382e-10
4.85276e-10
3.68704e-10
2.82494e-10
1.99265e-10
4.94939e-09
1.23554e-10
1.30421e-10
1.20139e-10
1.17207e-10
9.99618e-11
9.18727e-11
7.41604e-11
6.67665e-11
5.2511e-11
4.92073e-11
4.07767e-11
2.28136e-09
2.24625e-11
1.9392e-11
2.01158e-11
1.93286e-11
1.74913e-11
1.70163e-11
1.52856e-11
1.53572e-11
1.42187e-11
1.45317e-11
1.41908e-11
1.05409e-09
6.70753e-12
3.90259e-12
4.623e-12
4.79917e-12
4.82591e-12
4.91988e-12
4.97997e-12
5.10582e-12
5.19144e-12
5.31258e-12
5.38567e-12
4.91344e-10
2.65367e-12
1.31833e-12
1.51889e-12
1.64458e-12
1.71365e-12
1.79022e-12
1.85048e-12
1.91174e-12
1.95901e-12
2.00332e-12
2.03339e-12
1.96368e-10
1.13894e-12
5.43071e-13
6.0746e-13
6.51579e-13
6.75777e-13
7.0052e-13
7.18947e-13
7.36787e-13
7.50022e-13
7.62215e-13
7.70395e-13
1.26917e-10
1.16714e-12
3.15571e-13
3.26457e-13
3.33526e-13
3.3888e-13
3.4342e-13
3.4711e-13
3.50195e-13
3.52678e-13
3.54731e-13
3.56381e-13
1.1791e-06
1.07498e-06
9.19215e-07
8.05182e-07
6.51852e-07
5.46838e-07
4.15381e-07
3.36278e-07
2.41571e-07
1.99857e-07
1.59221e-07
1.66273e-07
3.82857e-07
3.26264e-07
2.5151e-07
2.02583e-07
1.36912e-07
1.05778e-07
5.79719e-08
4.83215e-08
2.31432e-08
2.63276e-08
2.02388e-08
2.18956e-08
8.60266e-08
6.48796e-08
4.47922e-08
3.12194e-08
1.69351e-08
1.27551e-08
5.38021e-09
5.88638e-09
3.71027e-09
4.24974e-09
3.83217e-09
4.05841e-09
1.24889e-08
8.47641e-09
4.94572e-09
3.19556e-09
1.51219e-09
1.56882e-09
9.63259e-10
1.07967e-09
9.20856e-10
9.94852e-10
9.92329e-10
1.01238e-09
1.25391e-09
8.12817e-10
4.94463e-10
4.21684e-10
3.01465e-10
3.29121e-10
2.79525e-10
2.99643e-10
2.93549e-10
3.01603e-10
3.06055e-10
3.1033e-10
1.58027e-10
1.23731e-10
1.13421e-10
1.0681e-10
1.0173e-10
1.03454e-10
1.00642e-10
1.02829e-10
1.03638e-10
1.05362e-10
1.07132e-10
1.0837e-10
4.12538e-11
3.77422e-11
3.85635e-11
3.78509e-11
3.79779e-11
3.80576e-11
3.8152e-11
3.85167e-11
3.8966e-11
3.95639e-11
4.01827e-11
4.05564e-11
1.44247e-11
1.43914e-11
1.44941e-11
1.45188e-11
1.45733e-11
1.46348e-11
1.47254e-11
1.48584e-11
1.50307e-11
1.52344e-11
1.54374e-11
1.55468e-11
5.4617e-12
5.50521e-12
5.54439e-12
5.57006e-12
5.59742e-12
5.62609e-12
5.66373e-12
5.71079e-12
5.76892e-12
5.83277e-12
5.89495e-12
5.92426e-12
2.05955e-12
2.07595e-12
2.09026e-12
2.1002e-12
2.11068e-12
2.12082e-12
2.13337e-12
2.1478e-12
2.16502e-12
2.18282e-12
2.19996e-12
2.20711e-12
7.77716e-13
7.8237e-13
7.86676e-13
7.8969e-13
7.92896e-13
7.95814e-13
7.99268e-13
8.02897e-13
8.07087e-13
8.11143e-13
8.14961e-13
8.1624e-13
3.57782e-13
3.58959e-13
3.60017e-13
3.60964e-13
3.61849e-13
3.6266e-13
3.63404e-13
3.6405e-13
3.64585e-13
3.64975e-13
3.65216e-13
3.65307e-13
6.60497e-07
7.99873e-07
8.8834e-07
9.99527e-07
1.1147e-06
1.23318e-06
1.33879e-06
1.41998e-06
1.46528e-06
1.4682e-06
1.39021e-06
1.31641e-06
3.34931e-07
3.16019e-07
3.42529e-07
3.83375e-07
4.28114e-07
4.75189e-07
5.16149e-07
5.46069e-07
5.58812e-07
5.42744e-07
5.00344e-07
4.51779e-07
1.52985e-07
9.92055e-08
1.08201e-07
1.1853e-07
1.30049e-07
1.42054e-07
1.51489e-07
1.56933e-07
1.56873e-07
1.44512e-07
1.29614e-07
1.07612e-07
6.4699e-08
2.47236e-08
2.69474e-08
2.85195e-08
3.03294e-08
3.2093e-08
3.30668e-08
3.29761e-08
3.06095e-08
2.7788e-08
2.27134e-08
1.77633e-08
2.66718e-08
4.82817e-09
5.31399e-09
5.39473e-09
5.50485e-09
5.54681e-09
5.30351e-09
4.87391e-09
4.26082e-09
3.5747e-09
2.76564e-09
1.94778e-09
1.12888e-08
7.91601e-10
8.77453e-10
8.39016e-10
8.32643e-10
7.60038e-10
6.91004e-10
5.80431e-10
4.85491e-10
3.69587e-10
2.83473e-10
2.00875e-10
4.96559e-09
1.25033e-10
1.31866e-10
1.21339e-10
1.18468e-10
1.01047e-10
9.30676e-11
7.52912e-11
6.7985e-11
5.37718e-11
5.04872e-11
4.21366e-11
2.29112e-09
2.32841e-11
2.02581e-11
2.09828e-11
2.024e-11
1.83929e-11
1.79628e-11
1.62277e-11
1.63199e-11
1.52114e-11
1.55277e-11
1.52113e-11
1.05972e-09