/*--------------------------------*- C++ -*----------------------------------*\
| =========                 |                                                 |
| \\      /  F ield         | OpenFOAM: The Open Source CFD Toolbox           |
|  \\    /   O peration     | Version:  2212                                  |
|   \\  /    A nd           | Website:  www.openfoam.com                      |
|    \\/     M anipulation  |                                                 |
\*---------------------------------------------------------------------------*/
FoamFile
{
    version     2.0;
    format      ascii;
    arch        "LSB;label=32;scalar=64";
    class       volScalarField;
    location    "0.04";
    object      tracer0;
}
// * * * * * * * * * * * * * * * * * * * * * * * * * * * * * * * * * * * * * //

dimensions      [0 0 0 0 0 0 0];

internalField   nonuniform List<scalar> 
3072
(
1.45472e-05
1.45298e-05
1.44788e-05
1.43821e-05
1.42865e-05
1.42175e-05
1.43825e-05
1.6216e-05
1.77866e-05
1.79177e-05
1.79484e-05
1.79714e-05
1.49013e-05
1.48354e-05
1.46281e-05
1.43882e-05
1.45157e-05
1.5348e-05
1.67998e-05
1.74332e-05
1.76567e-05
1.75298e-05
1.72014e-05
1.68481e-05
1.50529e-05
1.49511e-05
1.46124e-05
1.48262e-05
1.58598e-05
1.6824e-05
1.71575e-05
1.72475e-05
1.69309e-05
1.59187e-05
1.44806e-05
1.33537e-05
1.52086e-05
1.52659e-05
1.52601e-05
1.5917e-05
1.6631e-05
1.68769e-05
1.69298e-05
1.63602e-05
1.46253e-05
1.23795e-05
1.0926e-05
9.57152e-06
1.53135e-05
1.5703e-05
1.58818e-05
1.64236e-05
1.66519e-05
1.67101e-05
1.62021e-05
1.44193e-05
1.20159e-05
1.00319e-05
8.64808e-06
7.39685e-06
1.53667e-05
1.59009e-05
1.61611e-05
1.64693e-05
1.656e-05
1.63164e-05
1.50059e-05
1.26006e-05
1.02056e-05
8.47461e-06
7.20107e-06
6.19957e-06
1.53953e-05
1.59774e-05
1.62555e-05
1.64003e-05
1.63399e-05
1.56464e-05
1.38316e-05
1.15312e-05
9.52424e-06
8.06765e-06
6.95729e-06
6.07992e-06
1.54649e-05
1.60166e-05
1.62142e-05
1.62912e-05
1.60855e-05
1.52157e-05
1.3688e-05
1.16287e-05
9.73446e-06
8.32616e-06
7.25799e-06
6.39881e-06
1.75893e-05
1.77779e-05
1.61839e-05
1.60603e-05
1.58717e-05
1.52479e-05
1.39451e-05
1.21936e-05
1.05068e-05
9.16878e-06
8.17116e-06
7.3466e-06
2.10189e-05
1.98751e-05
1.7977e-05
1.61179e-05
1.5896e-05
1.54742e-05
1.46001e-05
1.34779e-05
1.23083e-05
1.11336e-05
1.02835e-05
9.49825e-06
2.293e-05
2.43557e-05
2.35903e-05
1.89017e-05
1.72212e-05
1.65147e-05
1.59751e-05
1.52738e-05
1.45231e-05
1.37332e-05
1.30468e-05
1.25351e-05
2.69877e-05
2.76706e-05
2.94722e-05
2.84636e-05
2.63662e-05
2.45185e-05
2.30826e-05
2.19604e-05
2.09482e-05
2.02127e-05
1.9502e-05
1.90697e-05
1.79944e-05
1.80244e-05
1.80518e-05
1.80987e-05
1.81444e-05
1.82199e-05
1.83134e-05
1.84186e-05
1.85181e-05
1.85835e-05
1.86136e-05
1.86025e-05
1.64603e-05
1.6178e-05
1.60184e-05
1.604e-05
1.62109e-05
1.65203e-05
1.69667e-05
1.75153e-05
1.80866e-05
1.85116e-05
1.87163e-05
1.87977e-05
1.22855e-05
1.17567e-05
1.13914e-05
1.14045e-05
1.16563e-05
1.22892e-05
1.32425e-05
1.45922e-05
1.61861e-05
1.77743e-05
1.85693e-05
1.8866e-05
8.67289e-06
8.09001e-06
7.79191e-06
7.77836e-06
8.03026e-06
8.59836e-06
9.5713e-06
1.10572e-05
1.32894e-05
1.62199e-05
1.82006e-05
1.89172e-05
6.73147e-06
6.24302e-06
6.07876e-06
6.07149e-06
6.36971e-06
6.90373e-06
7.82224e-06
9.27874e-06
1.13205e-05
1.45017e-05
1.77105e-05
1.89745e-05
5.71618e-06
5.38173e-06
5.27402e-06
5.28041e-06
5.57454e-06
6.10372e-06
6.95547e-06
8.39499e-06
1.03823e-05
1.3637e-05
1.7342e-05
1.90311e-05
5.59963e-06
5.24991e-06
5.02268e-06
5.06475e-06
5.31938e-06
5.84397e-06
6.65805e-06
8.07842e-06
1.00282e-05
1.32702e-05
1.7127e-05
1.90907e-05
5.89184e-06
5.55203e-06
5.39353e-06
5.47996e-06
5.70568e-06
6.1532e-06
6.89584e-06
8.26811e-06
1.00588e-05
1.32545e-05
1.70785e-05
1.91499e-05
6.84092e-06
6.46306e-06
6.42752e-06
6.5909e-06
6.9047e-06
7.45083e-06
8.32177e-06
9.78506e-06
1.16757e-05
1.46651e-05
1.77726e-05
1.92749e-05
9.06316e-06
8.68076e-06
8.71322e-06
8.95892e-06
9.35004e-06
9.96784e-06
1.08846e-05
1.22667e-05
1.39638e-05
1.64266e-05
1.85069e-05
1.94446e-05
1.21317e-05
1.20372e-05
1.22233e-05
1.26489e-05
1.32361e-05
1.405e-05
1.51454e-05
1.63938e-05
1.79563e-05
1.89554e-05
1.95189e-05
1.96365e-05
1.86806e-05
1.85703e-05
1.8699e-05
1.89523e-05
1.92564e-05
1.95418e-05
1.97633e-05
1.98916e-05
1.99464e-05
1.98972e-05
1.98464e-05
1.97088e-05
1.59919e-05
1.59774e-05
1.59258e-05
1.58153e-05
1.57202e-05
1.56301e-05
1.57417e-05
1.7109e-05
1.96061e-05
1.98402e-05
1.98786e-05
1.99027e-05
1.638e-05
1.62982e-05
1.6066e-05
1.57919e-05
1.58269e-05
1.65223e-05
1.82829e-05
1.9165e-05
1.95062e-05
1.94412e-05
1.9007e-05
1.8571e-05
1.65491e-05
1.64052e-05
1.59939e-05
1.60973e-05
1.69913e-05
1.84194e-05
1.89443e-05
1.90861e-05
1.90089e-05
1.82006e-05
1.7097e-05
1.60677e-05
1.67178e-05
1.66424e-05
1.65686e-05
1.71399e-05
1.82552e-05
1.87014e-05
1.881e-05
1.85243e-05
1.7326e-05
1.5017e-05
1.32206e-05
1.15856e-05
1.68926e-05
1.71954e-05
1.73155e-05
1.80381e-05
1.84793e-05
1.85985e-05
1.83589e-05
1.71216e-05
1.46976e-05
1.22536e-05
1.03345e-05
8.56213e-06
1.69834e-05
1.74974e-05
1.78049e-05
1.82663e-05
1.84155e-05
1.83395e-05
1.74619e-05
1.53164e-05
1.25094e-05
1.01633e-05
8.30217e-06
6.78752e-06
1.7051e-05
1.76984e-05
1.80104e-05
1.82296e-05
1.82708e-05
1.78453e-05
1.63906e-05
1.41093e-05
1.16701e-05
9.67649e-06
8.05731e-06
6.72535e-06
1.71188e-05
1.77416e-05
1.80055e-05
1.81309e-05
1.80326e-05
1.74233e-05
1.61627e-05
1.41895e-05
1.19307e-05
1.00449e-05
8.51367e-06
7.23469e-06
1.71165e-05
1.77235e-05
1.79348e-05
1.79686e-05
1.7852e-05
1.73967e-05
1.63614e-05
1.47459e-05
1.28527e-05
1.11719e-05
9.80647e-06
8.6513e-06
1.71214e-05
1.76613e-05
1.7802e-05
1.78276e-05
1.77488e-05
1.75045e-05
1.69824e-05
1.60984e-05
1.49667e-05
1.37165e-05
1.26491e-05
1.16933e-05
1.70093e-05
1.74943e-05
1.75398e-05
1.75415e-05
1.75192e-05
1.74619e-05
1.73417e-05
1.70995e-05
1.67404e-05
1.62681e-05
1.5773e-05
1.53004e-05
1.6987e-05
1.70899e-05
1.71527e-05
1.71675e-05
1.71727e-05
1.71829e-05
1.71923e-05
1.71533e-05
1.70925e-05
1.69514e-05
1.68329e-05
1.66774e-05
1.99289e-05
1.99581e-05
1.99974e-05
2.00313e-05
2.00946e-05
2.01676e-05
2.02465e-05
2.0071e-05
2.00348e-05
1.99988e-05
2.01217e-05
2.03682e-05
1.80759e-05
1.77782e-05
1.75579e-05
1.75629e-05
1.7683e-05
1.78904e-05
1.80786e-05
1.8093e-05
1.81345e-05
1.81935e-05
1.82536e-05
1.83279e-05
1.51549e-05
1.45616e-05
1.42049e-05
1.42176e-05
1.45192e-05
1.52914e-05
1.62069e-05
1.67528e-05
1.72107e-05
1.74582e-05
1.7558e-05
1.75881e-05
1.02144e-05
9.31933e-06
8.78597e-06
8.72407e-06
8.9522e-06
9.76631e-06
1.11401e-05
1.36651e-05
1.54349e-05
1.65608e-05
1.70509e-05
1.72056e-05
7.39994e-06
6.66331e-06
6.35949e-06
6.31967e-06
6.63196e-06
7.32258e-06
8.44753e-06
1.01454e-05
1.27495e-05
1.52958e-05
1.63997e-05
1.67708e-05
5.94653e-06
5.45096e-06
5.26617e-06
5.2509e-06
5.59554e-06
6.27665e-06
7.38796e-06
9.0196e-06
1.13123e-05
1.41351e-05
1.58255e-05
1.64582e-05
5.90816e-06
5.37138e-06
5.00764e-06
4.98633e-06
5.27025e-06
5.93552e-06
7.03372e-06
8.65266e-06
1.09536e-05
1.35512e-05
1.54954e-05
1.62645e-05
6.39178e-06
5.86361e-06
5.53905e-06
5.62883e-06
5.89331e-06
6.43486e-06
7.41177e-06
8.89663e-06
1.10659e-05
1.35573e-05
1.55113e-05
1.63493e-05
7.82623e-06
7.28275e-06
7.07421e-06
7.25624e-06
7.60766e-06
8.22876e-06
9.22425e-06
1.07033e-05
1.26469e-05
1.45644e-05
1.58856e-05
1.63782e-05
1.10271e-05
1.04965e-05
1.03544e-05
1.05417e-05
1.09023e-05
1.14383e-05
1.21806e-05
1.32167e-05
1.44045e-05
1.53971e-05
1.61544e-05
1.64987e-05
1.49042e-05
1.46198e-05
1.44604e-05
1.45183e-05
1.47089e-05
1.49704e-05
1.52927e-05
1.56676e-05
1.60891e-05
1.64031e-05
1.6602e-05
1.65804e-05
1.6578e-05
1.64651e-05
1.64489e-05
1.64929e-05
1.65743e-05
1.66649e-05
1.67449e-05
1.67945e-05
1.68159e-05
1.67936e-05
1.67485e-05
1.66266e-05
4.65917e-05
4.67498e-05
4.73604e-05
4.82924e-05
4.93535e-05
4.98335e-05
4.71749e-05
2.75762e-05
1.33191e-05
1.24385e-05
1.24292e-05
1.24543e-05
4.3051e-05
4.40028e-05
4.63748e-05
4.86432e-05
4.72315e-05
3.90834e-05
2.22549e-05
1.49405e-05
1.2281e-05
1.19322e-05
1.16543e-05
1.12328e-05
4.1498e-05
4.32123e-05
4.68243e-05
4.46124e-05
3.49492e-05
2.059e-05
1.44318e-05
1.20758e-05
1.11198e-05
1.01924e-05
8.80327e-06
7.75633e-06
3.9777e-05
4.04284e-05
4.07377e-05
3.36357e-05
2.17819e-05
1.43586e-05
1.15275e-05
1.02357e-05
8.79682e-06
7.24069e-06
5.91012e-06
5.01779e-06
3.78785e-05
3.48503e-05
3.2781e-05
2.43309e-05
1.52636e-05
1.1583e-05
9.94837e-06
8.629e-06
6.87751e-06
5.38568e-06
4.27584e-06
3.50759e-06
3.69204e-05
3.2283e-05
2.70249e-05
1.74468e-05
1.24534e-05
1.02409e-05
8.94818e-06
7.33269e-06
5.52203e-06
4.23516e-06
3.29643e-06
2.67803e-06
3.19983e-05
2.69175e-05
2.1271e-05
1.42044e-05
1.10878e-05
9.45087e-06
8.12518e-06
6.54892e-06
5.01544e-06
3.94254e-06
3.13677e-06
2.58611e-06
2.83844e-05
2.30043e-05
1.80417e-05
1.2557e-05
1.03179e-05
9.05268e-06
8.00044e-06
6.6122e-06
5.17429e-06
4.13419e-06
3.34779e-06
2.79849e-06
2.72837e-05
2.10652e-05
1.55052e-05
1.16166e-05
1.01063e-05
9.09588e-06
8.16591e-06
7.00043e-06
5.74352e-06
4.75849e-06
4.00179e-06
3.44352e-06
2.5233e-05
1.8398e-05
1.45447e-05
1.17038e-05
1.03145e-05
9.39564e-06
8.65223e-06
7.83841e-06
6.9891e-06
6.15442e-06
5.52095e-06
4.94208e-06
2.48993e-05
1.89052e-05
1.55984e-05
1.30965e-05
1.16582e-05
1.06602e-05
9.93803e-06
9.3264e-06
8.7128e-06
8.11366e-06
7.5914e-06
7.20464e-06
2.4295e-05
2.26761e-05
2.09468e-05
1.94683e-05
1.81056e-05
1.69057e-05
1.56843e-05
1.47407e-05
1.38204e-05
1.32099e-05
1.25628e-05
1.22534e-05
1.24784e-05
1.25048e-05
1.25341e-05
1.25826e-05
1.26301e-05
1.27111e-05
1.28157e-05
1.29376e-05
1.30642e-05
1.31547e-05
1.31977e-05
1.32005e-05
1.08293e-05
1.04997e-05
1.03346e-05
1.03388e-05
1.05018e-05
1.07837e-05
1.12247e-05
1.17811e-05
1.2426e-05
1.29899e-05
1.32795e-05
1.33879e-05
6.90477e-06
6.44991e-06
6.17944e-06
6.17479e-06
6.35452e-06
6.83552e-06
7.58369e-06
8.71537e-06
1.01935e-05
1.19088e-05
1.30441e-05
1.34541e-05
4.30822e-06
3.95195e-06
3.72984e-06
3.72069e-06
3.89753e-06
4.29629e-06
4.97663e-06
6.03189e-06
7.62925e-06
9.99378e-06
1.25231e-05
1.35099e-05
2.95951e-06
2.68265e-06
2.54601e-06
2.53983e-06
2.74328e-06
3.11427e-06
3.75434e-06
4.75486e-06
6.34017e-06
8.56071e-06
1.18144e-05
1.35725e-05
2.27083e-06
2.07116e-06
1.99343e-06
1.99631e-06
2.19497e-06
2.55669e-06
3.16342e-06
4.08584e-06
5.63077e-06
7.88552e-06
1.12597e-05
1.36392e-05
2.20677e-06
1.97798e-06
1.82319e-06
1.85059e-06
2.02134e-06
2.37438e-06
2.96767e-06
3.85773e-06
5.37611e-06
7.59806e-06
1.0991e-05
1.37079e-05
2.42048e-06
2.18638e-06
2.07523e-06
2.1335e-06
2.28656e-06
2.58804e-06
3.149e-06
3.9763e-06
5.42008e-06
7.58723e-06
1.09266e-05
1.37765e-05
3.08602e-06
2.82179e-06
2.7892e-06
2.90052e-06
3.11598e-06
3.49557e-06
4.13012e-06
5.06113e-06
6.61104e-06
8.63634e-06
1.15414e-05
1.3933e-05
4.62914e-06
4.35276e-06
4.37382e-06
4.55014e-06
4.83063e-06
5.27448e-06
5.93385e-06
6.90471e-06
8.34099e-06
1.00629e-05
1.24005e-05
1.41971e-05
6.90167e-06
6.82653e-06
6.96357e-06
7.28189e-06
7.70074e-06
8.28175e-06
9.08109e-06
1.01659e-05
1.14925e-05
1.2879e-05
1.40775e-05
1.45941e-05
1.18951e-05
1.19013e-05
1.21026e-05
1.24648e-05
1.28795e-05
1.33439e-05
1.38055e-05
1.4216e-05
1.45548e-05
1.47451e-05
1.48713e-05
1.47722e-05
1.60222e-05
1.60074e-05
1.59636e-05
1.58654e-05
1.57744e-05
1.56918e-05
1.58045e-05
1.71536e-05
1.96113e-05
1.98411e-05
1.98781e-05
1.99027e-05
1.63923e-05
1.6335e-05
1.6137e-05
1.58721e-05
1.58982e-05
1.6582e-05
1.83327e-05
1.91503e-05
1.94834e-05
1.93688e-05
1.88706e-05
1.83568e-05
1.65537e-05
1.64658e-05
1.6099e-05
1.61996e-05
1.71254e-05
1.83942e-05
1.88355e-05
1.89531e-05
1.86083e-05
1.72517e-05
1.51315e-05
1.36829e-05
1.67111e-05
1.67416e-05
1.66938e-05
1.72411e-05
1.81724e-05
1.85086e-05
1.85792e-05
1.79122e-05
1.57645e-05
1.27439e-05
1.09358e-05
9.25549e-06
1.68367e-05
1.72026e-05
1.73462e-05
1.79511e-05
1.82494e-05
1.83256e-05
1.77602e-05
1.56013e-05
1.2556e-05
9.98002e-06
8.345e-06
6.7377e-06
1.69019e-05
1.74375e-05
1.7701e-05
1.80422e-05
1.81465e-05
1.78708e-05
1.63162e-05
1.3387e-05
1.03325e-05
8.15195e-06
6.62867e-06
5.30886e-06
1.69477e-05
1.75475e-05
1.78202e-05
1.79703e-05
1.79046e-05
1.7077e-05
1.49011e-05
1.20694e-05
9.5416e-06
7.73927e-06
6.41375e-06
5.2634e-06
1.69994e-05
1.75608e-05
1.77683e-05
1.78168e-05
1.75537e-05
1.64964e-05
1.46671e-05
1.21827e-05
9.81217e-06
8.06953e-06
6.79703e-06
5.69044e-06
1.69939e-05
1.75118e-05
1.76404e-05
1.76246e-05
1.73041e-05
1.65195e-05
1.49594e-05
1.28681e-05
1.07863e-05
9.12535e-06
7.92584e-06
6.90558e-06
1.69895e-05
1.74097e-05
1.74751e-05
1.74512e-05
1.72614e-05
1.68155e-05
1.58826e-05
1.45809e-05
1.31177e-05
1.16462e-05
1.05038e-05
9.53315e-06
1.69224e-05
1.72287e-05
1.72415e-05
1.72153e-05
1.71532e-05
1.70209e-05
1.68004e-05
1.63488e-05
1.58506e-05
1.51442e-05
1.45507e-05
1.39142e-05
1.66606e-05
1.67645e-05
1.67206e-05
1.66857e-05
1.66756e-05
1.66657e-05
1.66168e-05
1.65402e-05
1.64444e-05
1.62911e-05
1.61111e-05
1.59434e-05
1.99304e-05
1.99608e-05
1.99951e-05
2.00454e-05
2.01157e-05
2.02167e-05
2.03574e-05
2.05198e-05
2.06826e-05
2.07982e-05
2.08536e-05
2.08625e-05
1.77324e-05
1.72735e-05
1.69611e-05
1.696e-05
1.71506e-05
1.75527e-05
1.81474e-05
1.89509e-05
1.9829e-05
2.0568e-05
2.09268e-05
2.10625e-05
1.21309e-05
1.14964e-05
1.0942e-05
1.09116e-05
1.112e-05
1.18266e-05
1.28749e-05
1.45462e-05
1.67275e-05
1.9232e-05
2.06111e-05
2.11335e-05
8.09554e-06
7.4224e-06
7.0028e-06
6.96074e-06
7.16518e-06
7.82397e-06
8.85429e-06
1.04547e-05
1.27536e-05
1.65414e-05
1.99275e-05
2.1197e-05
5.89996e-06
5.25625e-06
5.02134e-06
4.98983e-06
5.26305e-06
5.88037e-06
6.93067e-06
8.53982e-06
1.07076e-05
1.42693e-05
1.90093e-05
2.127e-05
4.69646e-06
4.23893e-06
4.07941e-06
4.06395e-06
4.3513e-06
4.93222e-06
5.91189e-06
7.57349e-06
9.61225e-06
1.31785e-05
1.8219e-05
2.13496e-05
4.63988e-06
4.17391e-06
3.86177e-06
3.83771e-06
4.07262e-06
4.63105e-06
5.56201e-06
7.22756e-06
9.21395e-06
1.27075e-05
1.78147e-05
2.14332e-05
5.02375e-06
4.58273e-06
4.30365e-06
4.37584e-06
4.59456e-06
5.05437e-06
5.86741e-06
7.47501e-06
9.23656e-06
1.26675e-05
1.7696e-05
2.15157e-05
6.21003e-06
5.75605e-06
5.575e-06
5.7294e-06
6.03718e-06
6.60404e-06
7.53603e-06
9.2421e-06
1.09041e-05
1.42048e-05
1.81067e-05
2.16055e-05
8.91686e-06
8.40508e-06
8.33794e-06
8.56672e-06
8.97959e-06
9.62563e-06
1.055e-05
1.19987e-05
1.30191e-05
1.54546e-05
1.72273e-05
2.0475e-05
1.35055e-05
1.31267e-05
1.30265e-05
1.31719e-05
1.34341e-05
1.37271e-05
1.40261e-05
1.43495e-05
1.45186e-05
1.55693e-05
1.68825e-05
1.99523e-05
1.57648e-05
1.56463e-05
1.55247e-05
1.54456e-05
1.53248e-05
1.52562e-05
1.51307e-05
1.50681e-05
1.4898e-05
1.5562e-05
1.64863e-05
1.92253e-05
1.89166e-05
1.9813e-05
2.22962e-05
2.2672e-05
2.30515e-05
2.32101e-05
2.30955e-05
2.29542e-05
2.28096e-05
2.26253e-05
2.24219e-05
2.22235e-05
1.61163e-05
1.65903e-05
1.82855e-05
1.84745e-05
1.86668e-05
1.88514e-05
1.91143e-05
1.93656e-05
1.95517e-05
1.96983e-05
1.97526e-05
1.97025e-05
1.17548e-05
1.33003e-05
1.35419e-05
1.37685e-05
1.39645e-05
1.41602e-05
1.43271e-05
1.44957e-05
1.46213e-05
1.47294e-05
1.47716e-05
1.47291e-05
8.89114e-06
9.05685e-06
9.19003e-06
9.35878e-06
9.4871e-06
9.65505e-06
9.77662e-06
9.93159e-06
1.00205e-05
1.01202e-05
1.01099e-05
1.00222e-05
2.2071e-05
2.19145e-05
2.17449e-05
2.1541e-05
2.1324e-05
2.10692e-05
2.0806e-05
2.05108e-05
2.02261e-05
1.9948e-05
1.97512e-05
1.9656e-05
1.95807e-05
1.93947e-05
1.91444e-05
1.88328e-05
1.84685e-05
1.80793e-05
1.76661e-05
1.72456e-05
1.68505e-05
1.65783e-05
1.63594e-05
1.68937e-05
1.46147e-05
1.4425e-05
1.41647e-05
1.38456e-05
1.34858e-05
1.31058e-05
1.27046e-05
1.2338e-05
1.20625e-05
1.19441e-05
1.18017e-05
1.21516e-05
9.84263e-06
9.58598e-06
9.29304e-06
8.99931e-06
8.74091e-06
8.53355e-06
8.39753e-06
8.31943e-06
8.27681e-06
8.2987e-06
8.27361e-06
8.44795e-06
1.95274e-05
1.92296e-05
1.90813e-05
1.8926e-05
1.87744e-05
1.85962e-05
1.84389e-05
1.82713e-05
1.81465e-05
1.80387e-05
1.79454e-05
1.78527e-05
1.73953e-05
1.76212e-05
1.77346e-05
1.77882e-05
1.78022e-05
1.77887e-05
1.77618e-05
1.77217e-05
1.76721e-05
1.7614e-05
1.75475e-05
1.74666e-05
1.2554e-05
1.29246e-05
1.32459e-05
1.35026e-05
1.37194e-05
1.38928e-05
1.4045e-05
1.41561e-05
1.42441e-05
1.42777e-05
1.42441e-05
1.41633e-05
8.65754e-06
8.8823e-06
9.07415e-06
9.27054e-06
9.42038e-06
9.57267e-06
9.67139e-06
9.76463e-06
9.78703e-06
9.74172e-06
9.6203e-06
9.42959e-06
1.77759e-05
1.7702e-05
1.76332e-05
1.75487e-05
1.7467e-05
1.73636e-05
1.72605e-05
1.71299e-05
1.70033e-05
1.68579e-05
1.67508e-05
1.66485e-05
1.73635e-05
1.72367e-05
1.70827e-05
1.68984e-05
1.66881e-05
1.6454e-05
1.61932e-05
1.59138e-05
1.56345e-05
1.54029e-05
1.52238e-05
1.54715e-05
1.40411e-05
1.38731e-05
1.36558e-05
1.33896e-05
1.3082e-05
1.27394e-05
1.23341e-05
1.19324e-05
1.15965e-05
1.14114e-05
1.12329e-05
1.15342e-05
9.18418e-06
8.88624e-06
8.56377e-06
8.24718e-06
7.97816e-06
7.7671e-06
7.65109e-06
7.6009e-06
7.57829e-06
7.60419e-06
7.56708e-06
7.69463e-06
1.68373e-05
1.74548e-05
1.76116e-05
1.77763e-05
1.77465e-05
1.76684e-05
1.75458e-05
1.73526e-05
1.71164e-05
1.6878e-05
1.66551e-05
1.64506e-05
1.55392e-05
1.56873e-05
1.5798e-05
1.58942e-05
1.5974e-05
1.60928e-05
1.61693e-05
1.62377e-05
1.62443e-05
1.62165e-05
1.61654e-05
1.60961e-05
1.18416e-05
1.20825e-05
1.22571e-05
1.245e-05
1.25808e-05
1.27442e-05
1.28527e-05
1.3e-05
1.30782e-05
1.31773e-05
1.31762e-05
1.31187e-05
7.82449e-06
7.98885e-06
8.1136e-06
8.27302e-06
8.39099e-06
8.54578e-06
8.6558e-06
8.79577e-06
8.87553e-06
8.96388e-06
8.95357e-06
8.87489e-06
1.63077e-05
1.61871e-05
1.60858e-05
1.59658e-05
1.58678e-05
1.57432e-05
1.56411e-05
1.55032e-05
1.53953e-05
1.52529e-05
1.51731e-05
1.50335e-05
1.5998e-05
1.58709e-05
1.57135e-05
1.55352e-05
1.53326e-05
1.51052e-05
1.4856e-05
1.4597e-05
1.43477e-05
1.41461e-05
1.40045e-05
1.42076e-05
1.30073e-05
1.28392e-05
1.26173e-05
1.23496e-05
1.20491e-05
1.17221e-05
1.13756e-05
1.10571e-05
1.08152e-05
1.07078e-05
1.0557e-05
1.09042e-05
8.71499e-06
8.48817e-06
8.22989e-06
7.97019e-06
7.74059e-06
7.56361e-06
7.44825e-06
7.38257e-06
7.34662e-06
7.36591e-06
7.34112e-06
7.49932e-06
1.50751e-05
1.51941e-05
1.5214e-05
1.52331e-05
1.52446e-05
1.52857e-05
1.53273e-05
1.5394e-05
1.54445e-05
1.54777e-05
1.5467e-05
1.54334e-05
1.42775e-05
1.43366e-05
1.43666e-05
1.43848e-05
1.43882e-05
1.43932e-05
1.43952e-05
1.43939e-05
1.43876e-05
1.43704e-05
1.43383e-05
1.42887e-05
1.12627e-05
1.15271e-05
1.17318e-05
1.18884e-05
1.20062e-05
1.20987e-05
1.21655e-05
1.22131e-05
1.22349e-05
1.22194e-05
1.21762e-05
1.21036e-05
7.68458e-06
7.88614e-06
8.04893e-06
8.21912e-06
8.34098e-06
8.4698e-06
8.54567e-06
8.62294e-06
8.63403e-06
8.59383e-06
8.49742e-06
8.35174e-06
1.538e-05
1.53117e-05
1.52359e-05
1.51471e-05
1.50441e-05
1.4923e-05
1.47853e-05
1.46287e-05
1.43971e-05
1.4785e-05
1.56332e-05
1.66304e-05
1.42191e-05
1.41271e-05
1.40102e-05
1.38663e-05
1.36954e-05
1.35041e-05
1.3294e-05
1.30705e-05
1.28364e-05
1.30474e-05
1.39471e-05
1.44998e-05
1.20009e-05
1.18653e-05
1.16948e-05
1.14907e-05
1.12574e-05
1.09524e-05
1.06297e-05
1.0316e-05
1.00422e-05
9.8364e-06
1.00691e-05
1.13406e-05
8.16808e-06
7.96357e-06
7.75361e-06
7.56653e-06
7.40834e-06
7.3399e-06
7.32356e-06
7.35568e-06
7.37404e-06
7.41658e-06
7.37902e-06
7.72715e-06
8.54525e-06
8.49734e-06
8.30704e-06
8.05981e-06
7.6617e-06
7.18195e-06
6.55735e-06
5.89471e-06
5.18785e-06
4.5907e-06
4.14034e-06
4.00085e-06
7.6849e-06
7.31306e-06
6.86353e-06
6.30087e-06
5.61779e-06
4.87238e-06
4.08262e-06
3.36962e-06
2.76603e-06
2.37742e-06
2.18733e-06
2.22775e-06
6.60065e-06
6.13995e-06
5.53822e-06
4.8575e-06
4.10456e-06
3.34353e-06
2.62355e-06
2.03651e-06
1.59783e-06
1.35025e-06
1.28532e-06
1.3514e-06
5.62307e-06
5.13076e-06
4.46843e-06
3.78312e-06
3.05789e-06
2.36713e-06
1.75529e-06
1.28134e-06
9.39207e-07
7.36822e-07
6.77861e-07
7.25827e-07
4.01437e-06
4.20606e-06
4.59892e-06
5.08976e-06
5.63264e-06
6.25246e-06
6.73206e-06
7.0701e-06
7.28999e-06
7.42516e-06
7.43417e-06
7.29535e-06
2.45664e-06
2.90187e-06
3.32603e-06
3.87289e-06
4.35201e-06
4.76015e-06
5.08268e-06
5.32408e-06
5.48321e-06
5.47873e-06
5.08258e-06
4.53933e-06
1.65038e-06
2.07847e-06
2.40712e-06
2.77588e-06
3.05406e-06
3.27217e-06
3.43823e-06
3.52293e-06
3.45438e-06
3.14198e-06
2.6911e-06
2.15112e-06
1.11935e-06
1.58319e-06
1.8549e-06
2.04529e-06
2.17487e-06
2.26444e-06
2.28247e-06
2.15693e-06
1.93218e-06
1.59799e-06
1.22412e-06
8.56214e-07
6.85929e-06
6.3648e-06
5.8221e-06
5.24079e-06
4.6533e-06
4.05237e-06
3.45956e-06
2.90416e-06
2.41418e-06
2.08804e-06
1.93719e-06
1.85332e-06
3.69286e-06
3.16556e-06
2.45946e-06
2.00881e-06
1.48166e-06
1.1494e-06
7.92783e-07
6.01576e-07
4.35731e-07
4.06149e-07
3.5723e-07
3.75081e-07
1.55501e-06
1.19941e-06
7.73642e-07
5.92069e-07
3.29364e-07
2.58151e-07
1.29757e-07
1.1379e-07
6.91544e-08
7.01997e-08
6.06323e-08
7.60912e-08
5.417e-07
3.68845e-07
1.8983e-07
1.42518e-07
6.13225e-08
4.7309e-08
2.21567e-08
1.96793e-08
1.06934e-08
1.07857e-08
9.59101e-09
1.39947e-08
1.87516e-06
1.9828e-06
2.43561e-06
3.11344e-06
4.15968e-06
5.35592e-06
6.20875e-06
6.75694e-06
7.09651e-06
7.29702e-06
7.41082e-06
7.47882e-06
4.29546e-07
5.47428e-07
8.18281e-07
1.35952e-06
2.41472e-06
3.81316e-06
5.13146e-06
5.97038e-06
6.477e-06
6.76613e-06
6.90523e-06
6.93832e-06
1.04547e-07
1.51848e-07
2.7304e-07
5.4976e-07
1.14093e-06
2.2178e-06
3.76724e-06
4.96071e-06
5.63407e-06
6.00303e-06
6.16594e-06
6.15027e-06
2.73608e-08
4.46141e-08
9.76369e-08
2.37501e-07
5.82811e-07
1.34494e-06
2.56937e-06
3.95654e-06
4.75398e-06
5.1901e-06
5.37867e-06
5.32856e-06
7.50835e-06
7.47454e-06
7.3091e-06
7.10082e-06
6.75304e-06
6.33776e-06
5.79161e-06
5.21482e-06
4.59819e-06
4.0812e-06
3.6945e-06
3.58482e-06
6.71857e-06
6.39911e-06
6.00965e-06
5.52108e-06
4.92317e-06
4.2735e-06
3.58157e-06
2.95956e-06
2.43307e-06
2.09986e-06
1.94429e-06
1.99873e-06
5.72944e-06
5.33408e-06
4.80786e-06
4.21555e-06
3.55502e-06
2.88987e-06
2.25744e-06
1.74322e-06
1.35887e-06
1.1457e-06
1.09914e-06
1.16863e-06
4.8252e-06
4.40874e-06
3.827e-06
3.23278e-06
2.59732e-06
1.99474e-06
1.46026e-06
1.04889e-06
7.54835e-07
5.85927e-07
5.42548e-07
5.89376e-07
3.60389e-06
3.79853e-06
4.15596e-06
4.59544e-06
5.07284e-06
5.61519e-06
6.0323e-06
6.32626e-06
6.51685e-06
6.63968e-06
6.65733e-06
6.56844e-06
2.23062e-06
2.64975e-06
3.03807e-06
3.54529e-06
3.97679e-06
4.35048e-06
4.64057e-06
4.85558e-06
5.00348e-06
5.01224e-06
4.69055e-06
4.22419e-06
1.46313e-06
1.90215e-06
2.20619e-06
2.56147e-06
2.82486e-06
3.03026e-06
3.18488e-06
3.26998e-06
3.22628e-06
2.95073e-06
2.56107e-06
2.07336e-06
9.38384e-07
1.42984e-06
1.70569e-06
1.89695e-06
2.02656e-06
2.11491e-06
2.14068e-06
2.043e-06
1.84086e-06
1.5428e-06
1.20159e-06
8.59553e-07
6.22366e-06
5.80934e-06
5.37146e-06
4.88659e-06
4.41141e-06
3.91766e-06
3.44357e-06
3.00165e-06
2.62792e-06
2.40115e-06
2.33561e-06
2.36109e-06
3.48021e-06
3.03573e-06
2.41356e-06
2.02285e-06
1.55582e-06
1.26099e-06
9.42481e-07
7.71253e-07
6.27324e-07
6.23824e-07
6.27175e-07
7.43947e-07
1.5411e-06
1.21291e-06
8.21166e-07
6.45047e-07
3.96124e-07
3.18668e-07
1.86837e-07
1.73593e-07
1.27222e-07
1.34462e-07
1.52271e-07
2.25016e-07
5.65273e-07
3.93561e-07
2.21213e-07
1.6592e-07
8.09057e-08
6.57953e-08
3.60068e-08
3.39695e-08
2.26419e-08
2.44173e-08
2.99063e-08
5.59339e-08
2.46484e-06
2.84463e-06
3.37924e-06
4.29562e-06
5.47859e-06
6.44532e-06
7.12184e-06
7.50263e-06
7.71676e-06
7.90384e-06
8.04274e-06
8.33148e-06
9.14976e-07
1.17079e-06
1.61519e-06
2.29594e-06
3.30307e-06
4.70852e-06
6.05023e-06
6.90766e-06
7.40195e-06
7.68716e-06
7.84462e-06
7.93142e-06
3.53594e-07
5.12926e-07
8.34698e-07
1.35244e-06
2.10886e-06
3.16612e-06
4.61337e-06
5.89479e-06
6.59868e-06
6.97987e-06
7.15077e-06
7.07468e-06
1.42766e-07
2.36031e-07
4.64032e-07
8.81138e-07
1.49987e-06
2.31489e-06
3.40536e-06
4.80546e-06
5.66021e-06
6.10583e-06
6.29284e-06
6.17743e-06
4.76025e-06
4.27487e-06
3.61475e-06
2.97642e-06
2.3169e-06
1.71738e-06
1.20694e-06
8.22266e-07
5.46481e-07
3.69669e-07
2.58682e-07
1.83509e-07
3.98424e-06
3.5337e-06
2.91234e-06
2.34416e-06
1.76439e-06
1.25731e-06
8.37852e-07
5.29841e-07
3.1483e-07
1.78411e-07
9.22722e-08
4.28271e-08
3.27185e-06
2.87326e-06
2.31253e-06
1.82463e-06
1.33006e-06
9.11897e-07
5.75267e-07
3.36345e-07
1.77846e-07
8.4103e-08
3.3456e-08
1.17342e-08
2.61155e-06
2.27095e-06
1.78697e-06
1.38303e-06
9.76131e-07
6.43034e-07
3.82881e-07
2.0631e-07
9.71448e-08
3.88411e-08
1.27194e-08
3.86894e-09
2.00352e-06
1.72134e-06
1.32604e-06
1.0058e-06
6.86792e-07
4.34081e-07
2.43562e-07
1.20941e-07
5.10732e-08
1.77762e-08
5.09866e-09
1.45472e-09
1.47175e-06
1.24074e-06
9.36926e-07
6.94979e-07
4.59217e-07
2.78685e-07
1.47795e-07
6.80892e-08
2.62073e-08
8.24577e-09
2.16244e-09
5.95666e-10
1.04571e-06
8.56558e-07
6.32956e-07
4.57179e-07
2.92861e-07
1.71395e-07
8.66843e-08
3.75793e-08
1.34914e-08
3.95645e-09
9.70844e-10
2.58037e-10
7.29977e-07
5.79299e-07
4.15823e-07
2.90366e-07
1.80866e-07
1.02779e-07
5.02008e-08
2.08253e-08
7.11575e-09
1.97595e-09
4.56199e-10
1.15415e-10
4.99901e-07
3.88696e-07
2.68747e-07
1.80013e-07
1.09532e-07
6.08248e-08
2.89985e-08
1.16573e-08
3.83066e-09
1.01235e-09
2.19456e-10
5.18742e-11
3.26343e-07
2.53173e-07
1.68644e-07
1.07943e-07
6.46847e-08
3.53157e-08
1.65676e-08
6.51446e-09
2.0695e-09
5.19559e-10
1.04902e-10
2.27702e-11
2.00247e-07
1.57192e-07
1.01972e-07
6.24752e-08
3.7372e-08
2.0267e-08
9.46823e-09
3.68947e-09
1.14718e-09
2.74662e-10
5.08093e-11
9.89899e-12
1.31798e-07
1.05189e-07
6.75157e-08
3.99973e-08
2.42002e-08
1.32128e-08
6.24896e-09
2.45049e-09
7.60688e-10
1.74895e-10
2.89074e-11
5.09743e-12
7.602e-07
1.22897e-06
1.44649e-06
1.55586e-06
1.61394e-06
1.60777e-06
1.47281e-06
1.28089e-06
1.03155e-06
7.60537e-07
5.07084e-07
3.05467e-07
6.06011e-07
9.93405e-07
1.16618e-06
1.23374e-06
1.24526e-06
1.14749e-06
9.72186e-07
7.72531e-07
5.55116e-07
3.61409e-07
2.06983e-07
1.07634e-07
4.86393e-07
8.16483e-07
9.61311e-07
1.00874e-06
9.87036e-07
8.49933e-07
6.75585e-07
4.94376e-07
3.20847e-07
1.87618e-07
9.51683e-08
4.53876e-08
3.86975e-07
6.70721e-07
8.00567e-07
8.40405e-07
8.05995e-07
6.64282e-07
5.05577e-07
3.51137e-07
2.15196e-07
1.20734e-07
6.16805e-08
3.24504e-08
3.00043e-07
5.40393e-07
6.63794e-07
7.04738e-07
6.76776e-07
5.50684e-07
4.13141e-07
2.85427e-07
1.77993e-07
1.07266e-07
6.32142e-08
3.88426e-08
2.23547e-07
4.15599e-07
5.36697e-07
5.85653e-07
5.75941e-07
4.78903e-07
3.6585e-07
2.62423e-07
1.7735e-07
1.1579e-07
7.72338e-08
5.45996e-08
1.57061e-07
2.9465e-07
4.07721e-07
4.69029e-07
4.77934e-07
4.22521e-07
3.37339e-07
2.55934e-07
1.84776e-07
1.33273e-07
9.65783e-08
7.08117e-08
1.01661e-07
1.86619e-07
2.78581e-07
3.43359e-07
3.68561e-07
3.44734e-07
3.00142e-07
2.39782e-07
1.83625e-07
1.39023e-07
1.04324e-07
7.6919e-08
5.95747e-08
1.01219e-07
1.63536e-07
2.17474e-07
2.50475e-07
2.45126e-07
2.2531e-07
1.96854e-07
1.59359e-07
1.24384e-07
9.40312e-08
6.88952e-08
3.05861e-08
4.59547e-08
7.94815e-08
1.13782e-07
1.41289e-07
1.46303e-07
1.38538e-07
1.25246e-07
1.08568e-07
8.84725e-08
6.81672e-08
5.04525e-08
1.33507e-08
1.74183e-08
3.1284e-08
4.79547e-08
6.37408e-08
7.15722e-08
7.04231e-08
6.54324e-08
5.84383e-08
5.06657e-08
4.20007e-08
3.19228e-08
5.57534e-09
6.51115e-09
1.12248e-08
1.86336e-08
2.65206e-08
3.29664e-08
3.53002e-08
3.44511e-08
3.21534e-08
2.941e-08
2.59704e-08
2.12628e-08
1.6636e-07
9.82676e-08
4.3343e-08
2.96814e-08
1.17949e-08
8.99962e-09
3.9479e-09
3.31358e-09
1.63945e-09
1.57226e-09
1.2865e-09
1.66789e-09
5.07397e-08
2.65836e-08
1.11848e-08
7.32173e-09
3.03458e-09
2.06397e-09
8.74146e-10
6.13738e-10
2.73978e-10
2.2596e-10
1.59256e-10
1.73827e-10
2.10611e-08
1.13034e-08
5.98034e-09
3.82744e-09
1.86416e-09
1.04806e-09
4.47588e-10
2.13864e-10
7.80935e-11
4.02694e-11
2.11368e-11
1.75455e-11
1.84129e-08
1.18729e-08
7.62327e-09
4.75375e-09
2.59736e-09
1.26623e-09
5.25892e-10
1.94204e-10
6.01445e-11
1.82183e-11
4.90216e-12
2.03034e-12
2.66697e-08
1.88715e-08
1.2741e-08
7.88327e-09
4.33085e-09
2.07545e-09
8.51569e-10
2.93741e-10
8.29022e-11
1.86282e-11
3.44149e-12
5.80423e-13
3.97998e-08
2.83601e-08
1.89081e-08
1.14576e-08
6.1725e-09
2.90964e-09
1.18141e-09
4.05128e-10
1.1422e-10
2.55565e-11
4.19106e-12
5.13934e-13
5.11558e-08
3.53222e-08
2.27727e-08
1.34406e-08
7.12983e-09
3.34033e-09
1.35714e-09
4.68314e-10
1.33553e-10
3.02173e-11
5.09764e-12
6.18031e-13
5.48032e-08
3.71833e-08
2.36263e-08
1.38149e-08
7.30252e-09
3.42842e-09
1.40336e-09
4.90359e-10
1.42302e-10
3.2802e-11
5.70526e-12
7.07392e-13
4.85716e-08
3.25753e-08
2.05007e-08
1.19238e-08
6.30586e-09
2.98247e-09
1.23983e-09
4.44088e-10
1.33783e-10
3.23525e-11
5.97225e-12
7.81906e-13
3.57224e-08
2.40104e-08
1.51475e-08
8.85046e-09
4.72002e-09
2.26384e-09
9.61699e-10
3.55358e-10
1.12035e-10
2.86962e-11
5.73381e-12
8.48694e-13
2.31e-08
1.57978e-08
1.01067e-08
5.98178e-09
3.23781e-09
1.58399e-09
6.92266e-10
2.6612e-10
8.88145e-11
2.47765e-11
5.49373e-12
9.43839e-13
1.59834e-08
1.11853e-08
7.25356e-09
4.33808e-09
2.37949e-09
1.18901e-09
5.37188e-10
2.17088e-10
7.76155e-11
2.39874e-11
6.04352e-12
1.15287e-12
8.38209e-09
1.44295e-08
3.82181e-08
1.10004e-07
3.1019e-07
7.97951e-07
1.72608e-06
2.97562e-06
3.88584e-06
4.36894e-06
4.58156e-06
4.53786e-06
3.37228e-09
5.21277e-09
1.62009e-08
5.37536e-08
1.70999e-07
4.76869e-07
1.12667e-06
2.14796e-06
3.06982e-06
3.56766e-06
3.79673e-06
3.7889e-06
1.51066e-09
2.07775e-09
7.27393e-09
2.71577e-08
9.41326e-08
2.83015e-07
7.19603e-07
1.48616e-06
2.33354e-06
2.81197e-06
3.0455e-06
3.06931e-06
6.93915e-10
8.77188e-10
3.36863e-09
1.39401e-08
5.18804e-08
1.66315e-07
4.49082e-07
9.87987e-07
1.69523e-06
2.12284e-06
2.34405e-06
2.39132e-06
3.11668e-10
3.77801e-10
1.56751e-09
7.09658e-09
2.83743e-08
9.65172e-08
2.74878e-07
6.3818e-07
1.16334e-06
1.52377e-06
1.71627e-06
1.77525e-06
1.33336e-10
1.61524e-10
7.21919e-10
3.57233e-09
1.53531e-08
5.51312e-08
1.63927e-07
3.96981e-07
7.58476e-07
1.03362e-06
1.1861e-06
1.24397e-06
5.3468e-11
6.70976e-11
3.24095e-10
1.76536e-09
8.20274e-09
3.10594e-08
9.55957e-08
2.38143e-07
4.69754e-07
6.58859e-07
7.68261e-07
8.15546e-07
1.99133e-11
2.69086e-11
1.40118e-10
8.52204e-10
4.32769e-09
1.73051e-08
5.46861e-08
1.38045e-07
2.76191e-07
3.92535e-07