/*--------------------------------*- C++ -*----------------------------------*\
| =========                 |                                                 |
| \\      /  F ield         | OpenFOAM: The Open Source CFD Toolbox           |
|  \\    /   O peration     | Version:  2212                                  |
|   \\  /    A nd           | Website:  www.openfoam.com                      |
|    \\/     M anipulation  |                                                 |
\*---------------------------------------------------------------------------*/
FoamFile
{
    version     2.0;
    format      ascii;
    arch        "LSB;label=32;scalar=64";
    class       volVectorField;
    location    "0.04";
    object      U;
}
// * * * * * * * * * * * * * * * * * * * * * * * * * * * * * * * * * * * * * //

dimensions      [0 1 -1 0 0 0 0];

internalField   nonuniform List<vector> 
3072
(
(0.348338 21.7234 0)
(0.948572 18.6811 0)
(2.65375 17.1387 4.52488e-19)
(4.05918 16.1403 -7.59818e-15)
(5.39784 15.4666 1.21849e-14)
(6.24454 15.4558 -5.6939e-15)
(7.74682 17.4016 -2.70597e-15)
(14.7745 16.9214 -1.39269e-14)
(27.5827 15.7043 2.26961e-14)
(32.7587 21.5275 -8.48e-15)
(35.1121 23.5981 5.59126e-15)
(38.7285 25.4325 2.65448e-15)
(-5.71375 25.6499 -3.3198e-16)
(-3.18977 22.1385 -2.54393e-15)
(0.741308 22.5784 1.30121e-15)
(3.76865 22.2807 0)
(7.24135 24.1717 5.29562e-15)
(14.0002 24.9724 -7.84709e-15)
(23.218 27.4108 0)
(29.5594 29.0577 0)
(32.1678 28.9666 0)
(32.9087 29.9046 7.62705e-18)
(33.3687 30.0707 -1.17155e-14)
(34.7904 30.2302 5.20899e-18)
(-5.46743 29.171 3.06534e-16)
(-1.58211 26.1803 0)
(4.25812 27.4754 0)
(10.3435 27.6874 -6.87797e-15)
(18.1234 29.5467 4.60814e-15)
(25.5128 30.8022 -6.82062e-15)
(30.3253 31.1848 8.63329e-15)
(32.9275 30.6503 0)
(34.1342 29.5159 0)
(34.4464 28.8552 -2.9802e-15)
(34.918 28.1824 -2.84204e-15)
(35.6113 27.5235 8.32163e-15)
(-5.32944 32.7682 -1.12341e-15)
(0.307684 31.4673 -2.08747e-15)
(7.86239 33.3319 2.05744e-15)
(15.5099 33.635 -2.07211e-15)
(22.7859 34.1742 8.14969e-15)
(27.8361 33.5379 -7.74354e-15)
(30.6122 32.4999 -3.37319e-15)
(32.2961 31.0333 -8.93591e-15)
(33.0599 29.7246 -2.21559e-18)
(33.3574 28.7027 5.24566e-15)
(33.7146 27.7644 4.96862e-15)
(34.0867 26.8542 -4.81407e-15)
(-1.52033 34.8686 0)
(3.65768 35.3885 9.4501e-16)
(11.1594 36.8626 -1.856e-15)
(18.409 36.7296 3.68676e-15)
(24.3333 36.0353 4.13594e-18)
(27.778 34.5022 3.19281e-15)
(29.8507 32.7875 2.87641e-15)
(30.8555 31.098 2.77047e-15)
(31.3561 29.5407 -5.18243e-15)
(31.6742 28.2276 4.83307e-15)
(32.0236 27.0577 -6.83653e-15)
(32.4044 25.9794 8.69034e-15)
(0.502914 37.2036 -9.51048e-16)
(6.14669 38.1521 8.61017e-16)
(13.1281 39.0712 3.33178e-15)
(19.4243 38.3873 0)
(24.1023 36.8782 -6.19991e-15)
(26.7962 34.8646 5.6042e-15)
(28.2964 32.869 0)
(29.1573 30.9326 -4.97076e-15)
(29.686 29.2066 4.64526e-15)
(30.0709 27.7112 0)
(30.4454 26.3861 2.41694e-18)
(30.8342 25.1908 3.9923e-15)
(3.50319 39.1198 0)
(8.3265 40.7487 -1.58554e-15)
(14.3406 40.8471 1.5168e-15)
(19.4462 39.7051 0)
(23.0898 37.6154 -2.7519e-15)
(25.2448 35.2611 4.17905e-18)
(26.5704 32.9718 4.80611e-15)
(27.4101 30.8527 4.51513e-15)
(27.9956 28.9618 -4.26235e-15)
(28.4571 27.2973 4.05466e-15)
(28.8817 25.8213 -3.8785e-15)
(29.2993 24.5007 -1.12119e-14)
(5.24489 41.4816 0)
(9.67786 43.2708 1.45648e-15)
(14.663 42.5774 -2.74049e-15)
(18.6873 41.0048 2.60643e-15)
(21.6178 38.4636 0)
(23.5248 35.7997 -4.6154e-15)
(24.7981 33.2467 4.36626e-15)
(25.6855 30.9134 9.0991e-19)
(26.3482 28.8276 -7.91026e-15)
(26.8812 26.9807 -3.79548e-15)
(27.3501 25.3429 -2.30297e-18)
(27.7877 23.8842 7.10249e-15)
(7.57516 43.0453 0)
(10.7211 45.641 -1.34002e-15)
(14.3538 44.0752 -2.47022e-15)
(17.429 42.1693 -2.31683e-15)
(19.8562 39.3124 4.38863e-15)
(21.6507 36.3837 0)
(22.959 33.5812 0)
(23.9325 31.0206 0)
(24.6801 28.7265 0)
(25.2764 26.6893 3.59569e-15)
(25.7778 24.8828 -3.49958e-15)
(26.2212 23.2787 3.4151e-15)
(8.16981 46.1899 0)
(10.691 47.7802 1.17836e-15)
(13.1802 45.141 -3.36907e-18)
(15.6603 42.7023 2.09423e-15)
(17.7756 39.5834 2.00735e-15)
(19.5201 36.4677 -3.85498e-15)
(20.8974 33.5094 0)
(21.974 30.7993 -1.6993e-18)
(22.8142 28.3608 -1.0603e-14)
(23.4763 26.1861 0)
(24.0111 24.2533 6.76146e-15)
(24.4592 22.5365 -3.31324e-15)
(10.941 46.8167 0)
(9.8853 47.4511 1.09079e-15)
(11.1153 44.0191 4.04931e-15)
(13.1596 41.1666 -3.88958e-15)
(15.1184 38.0901 -5.62901e-15)
(16.8944 35.0894 9.08032e-15)
(18.3871 32.2598 -1.5052e-18)
(19.5962 29.6436 -3.46206e-15)
(20.5526 27.2591 3.38577e-15)
(21.3009 25.1068 -6.65762e-15)
(21.8882 23.174 -9.81112e-15)
(22.3582 21.4436 9.65907e-15)
(4.77814 43.286 -5.7273e-16)
(6.67518 41.9768 -4.13706e-15)
(7.80646 38.3793 9.50931e-16)
(9.80873 35.9397 0)
(11.8734 33.6635 0)
(13.7872 31.4074 2.84269e-18)
(15.4252 29.194 1.00861e-14)
(16.7726 27.0544 6.59648e-15)
(17.8476 25.0265 0)
(18.6894 23.1366 6.39677e-15)
(19.3414 21.3955 0)
(19.8494 19.8044 3.77042e-18)
(41.3316 25.0097 -1.86496e-14)
(43.7499 24.6391 8.0535e-15)
(45.0526 23.1435 -8.13821e-15)
(45.9039 21.7284 -2.73234e-15)
(45.7255 19.7905 -2.70153e-15)
(45.0888 17.8712 0)
(43.3958 15.7668 0)
(41.0441 13.753 5.35098e-15)
(37.6752 11.7962 -5.39883e-15)
(33.4078 9.69834 0)
(27.7878 6.35449 0)
(25.3107 -0.10093 -3.70432e-16)
(35.7852 30.0947 6.96392e-15)
(37.0403 29.5544 0)
(38.1798 28.554 -9.75844e-18)
(39.2601 27.1819 3.37788e-15)
(40.0591 25.5 1.69514e-15)
(40.3941 23.7705 6.90913e-15)
(40.1551 22.093 -1.06882e-14)
(39.3332 20.6176 1.87159e-15)
(37.948 19.4801 0)
(35.264 18.5673 0)
(31.866 17.4518 0)
(31.8724 14.2501 -4.03429e-23)
(36.2257 26.8059 2.72101e-15)
(36.9222 25.9942 -7.94346e-15)
(37.587 25.0659 2.61742e-15)
(38.1331 24.0798 5.24649e-15)
(38.4484 23.0933 -5.30614e-15)
(38.4662 22.1857 0)
(38.1471 21.4435 0)
(37.488 20.9665 -1.59792e-18)
(36.5237 20.8899 1.60156e-15)
(34.8492 21.1031 0)
(32.2694 21.1657 0)
(33.5782 21.0279 0)
(34.4686 25.9943 3.17071e-18)
(34.9524 25.1461 6.81844e-15)
(35.4347 24.2792 4.46325e-15)
(35.855 23.4263 -4.43368e-15)
(36.1499 22.6449 0)
(36.2771 22.0111 2.25369e-15)
(36.2104 21.6148 0)
(35.9495 21.5033 3.74841e-15)
(35.5629 21.796 -1.32688e-15)
(34.7618 22.6386 0)
(32.7208 23.8903 -7.754e-16)
(35.7468 25.8109 -1.03218e-15)
(32.8202 24.9868 -4.1773e-15)
(33.2738 24.0548 0)
(33.7188 23.1826 0)
(34.124 22.3956 0)
(34.4614 21.7376 0)
(34.7146 21.2758 -3.81493e-15)
(34.8645 21.0934 -1.31313e-18)
(34.9497 21.2238 -2.15082e-15)
(34.9545 21.8243 0)
(34.8495 23.0066 -1.17465e-15)
(33.5224 24.9084 7.31318e-16)
(37.5252 28.0057 9.52253e-16)
(31.2479 24.1082 -2.22967e-18)
(31.6845 23.1216 -7.503e-15)
(32.1238 22.2351 3.67838e-15)
(32.5521 21.4697 6.43642e-20)
(32.9603 20.862 2.13972e-18)
(33.3502 20.4633 5.44799e-15)
(33.7393 20.3342 -1.37087e-18)
(34.1483 20.5427 -5.739e-15)
(34.5957 21.2073 -2.04681e-15)
(35.1282 22.5045 1.1514e-15)
(34.6768 24.8809 -1.38119e-15)
(39.2777 29.0501 -4.41304e-16)
(29.7245 23.3159 1.08744e-14)
(30.1617 22.2541 3.53784e-15)
(30.6085 21.3173 0)
(31.067 20.5212 0)
(31.5454 19.8938 2.02879e-18)
(32.0624 19.4761 -3.3896e-15)
(32.6493 19.3182 5.11754e-15)
(33.3457 19.4816 -1.17811e-18)
(34.1871 20.0743 1.83399e-15)
(35.2759 21.2889 0)
(35.6591 23.6152 -2.09834e-18)
(40.5877 28.5397 4.11045e-16)
(28.2142 22.5833 -3.46087e-15)
(28.6429 21.4268 -3.38672e-15)
(29.0849 20.4126 3.33328e-15)
(29.5558 19.5493 -3.28717e-15)
(30.0792 18.8557 -6.32425e-20)
(30.6893 18.3604 6.45751e-15)
(31.4352 18.1003 -3.21682e-15)
(32.3811 18.1263 1.6236e-15)
(33.59 18.5291 0)
(35.2345 19.5121 9.20314e-16)
(36.508 21.6374 5.57156e-16)
(41.5947 26.8626 -1.53512e-15)
(26.6335 21.8541 3.34349e-15)
(27.0371 20.5923 -3.28357e-15)
(27.4542 19.4855 -3.23199e-15)
(27.9118 18.534 -6.38423e-15)
(28.446 17.7452 6.30866e-15)
(29.1044 17.1338 -6.23848e-15)
(29.9539 16.7184 0)
(31.0846 16.5304 -1.53821e-15)
(32.5938 16.6276 0)
(34.7253 17.1898 0)
(36.9078 18.8146 0)
(42.0387 23.6488 1.42742e-15)
(24.8539 21.0134 3.25467e-15)
(25.2252 19.6645 -6.40938e-15)
(25.6048 18.476 6.31982e-15)
(26.0287 17.4403 6.23937e-15)
(26.5426 16.5533 3.08232e-15)
(27.204 15.8145 0)
(28.0947 15.2189 0)
(29.3252 14.7708 2.96788e-15)
(31.0333 14.4791 0)
(33.5502 14.473 -7.78692e-16)
(36.4481 15.212 4.62834e-16)
(41.7735 18.8707 -2.00623e-15)
(22.749 19.8998 -6.34398e-15)
(23.0962 18.5243 6.25264e-15)
(23.4388 17.3016 -6.17406e-15)
(23.8191 16.2182 -1.52631e-14)
(24.2904 15.2603 -1.76691e-18)
(24.9152 14.4124 1.09572e-18)
(25.7861 13.647 -2.94507e-15)
(27.0149 12.9342 -2.89476e-15)
(28.7781 12.2099 0)
(31.4861 11.5454 2.19578e-15)
(34.7137 10.9388 4.25189e-16)
(40.3325 12.0501 -3.27523e-19)
(20.2523 18.3625 -3.64235e-18)
(20.5888 17.0588 0)
(20.9031 15.8808 0)
(21.2404 14.8144 2.98228e-15)
(21.6592 13.8419 8.86042e-15)
(22.2181 12.9371 -2.92324e-15)
(23.0183 12.0487 -1.59761e-18)
(24.1503 11.1182 -1.42342e-15)
(25.8151 9.99579 -1.39634e-15)
(28.3174 8.64378 -1.39548e-15)
(32.0504 6.35936 0)
(37.2681 -1.47961 5.50817e-16)
(21.777 -0.639574 -3.82456e-16)
(18.8634 -1.15528 0)
(17.4023 -2.77914 -4.76162e-19)
(16.2875 -4.25754 0)
(15.7252 -5.5237 6.10489e-15)
(15.4233 -6.6284 -5.74896e-15)
(16.6989 -7.47175 0)
(17.7341 -12.2395 -1.11712e-14)
(14.6499 -24.9016 1.99392e-14)
(19.6602 -31.9814 -1.41745e-14)
(22.5078 -34.0265 -2.83837e-15)
(24.2188 -37.7077 -2.66883e-15)
(25.5916 5.38865 -1.66284e-15)
(22.1883 3.03973 -1.27656e-15)
(22.5428 -0.693928 3.91059e-15)
(22.0343 -3.74975 0)
(23.4994 -6.68415 -5.29098e-15)
(24.5854 -11.9865 5.29518e-15)
(26.0013 -21.0594 0)
(28.348 -28.3198 4.58692e-15)
(28.069 -31.6366 -1.28897e-14)
(28.9319 -32.7108 7.98502e-15)
(29.2369 -32.9316 8.06418e-15)
(29.3161 -34.3393 -1.11319e-14)
(28.9747 5.15628 3.06502e-16)
(25.9365 1.68685 0)
(26.9507 -3.73046 -2.28526e-15)
(26.9997 -9.16071 0)
(28.3833 -16.1308 0)
(29.947 -23.9279 -4.60605e-15)
(30.356 -29.322 1.77031e-14)
(30.2216 -32.3813 -1.09513e-14)
(28.9315 -33.7809 3.43618e-15)
(28.2005 -34.2131 0)
(27.536 -34.5693 5.90467e-15)
(26.8354 -35.2407 -2.84063e-15)
(32.6356 5.59409 -1.12676e-15)
(31.0134 0.392063 1.04878e-15)
(32.6878 -6.69294 2.06337e-15)
(32.8953 -14.0055 4.16352e-15)
(33.4688 -21.4174 -4.1366e-15)
(33.0841 -27.0765 -3.98316e-15)
(32.0441 -30.2163 0)
(30.7102 -31.9183 0)
(29.3036 -32.8127 2.91652e-15)
(28.2292 -33.1545 0)
(27.2757 -33.4669 4.09539e-18)
(26.3472 -33.8606 2.4759e-15)
(34.7851 2.0355 1.54891e-15)
(35.0544 -2.79654 -9.52206e-16)
(36.5485 -10.0616 -1.87758e-15)
(36.48 -17.2774 0)
(35.9119 -23.5646 0)
(34.4401 -27.3856 3.33537e-15)
(32.6557 -29.5183 0)
(30.9271 -30.6304 -5.74624e-15)
(29.3011 -31.1782 -2.70497e-15)
(27.9191 -31.5075 5.04931e-15)
(26.7067 -31.8353 -7.1437e-15)
(25.5924 -32.2078 4.53826e-15)
(37.3046 0.265021 -6.30612e-19)
(38.0525 -5.22291 -8.70312e-16)
(39.1313 -12.163 1.69541e-15)
(38.5319 -18.5731 1.81745e-18)
(37.0712 -23.5639 3.20163e-15)
(35.0013 -26.4494 -5.82666e-15)
(32.9302 -28.0261 5.54442e-15)
(30.9224 -28.9582 4.87584e-18)
(29.1116 -29.5275 0)
(27.5398 -29.9288 0)
(26.1579 -30.3028 8.68453e-15)
(24.915 -30.695 4.79448e-19)
(39.2621 -2.86109 -8.87722e-16)
(40.8544 -7.52925 -8.02411e-16)
(41.1337 -13.5635 0)
(40.0747 -18.7662 -2.98537e-15)
(37.9815 -22.6156 2.83188e-15)
(35.5545 -24.9074 7.94727e-15)
(33.1861 -26.3145 4.97017e-15)
(30.9843 -27.2233 6.67361e-18)
(29.0065 -27.8537 -8.85554e-15)
(27.2629 -28.3448 4.21357e-15)
(25.7205 -28.7894 4.04367e-15)
(24.3421 -29.2286 2.39892e-18)
(41.6447 -4.67512 -5.39634e-19)
(43.4762 -9.02615 1.46946e-15)
(42.9662 -14.0253 0)
(41.487 -18.1025 -2.65324e-15)
(38.95 -21.1751 -2.5045e-15)
(36.2316 -23.1985 4.49295e-18)
(33.6064 -24.5588 -8.98236e-15)
(31.1904 -25.5197 3.35723e-18)
(29.018 -26.2395 -2.29918e-18)
(27.089 -26.8179 3.93921e-15)
(25.3767 -27.3259 -3.80049e-15)
(23.8498 -27.8033 2.04083e-18)
(43.1988 -7.18789 -3.87268e-16)
(45.8953 -10.235 6.7205e-16)
(44.5022 -13.8516 -3.74275e-15)
(42.7143 -16.9494 2.35057e-15)
(39.8928 -19.4675 0)
(36.9398 -21.3572 0)
(34.0808 -22.7505 4.10801e-15)
(31.4457 -23.8025 7.92445e-15)
(29.0678 -24.6195 -3.83479e-15)
(26.9463 -25.2775 -3.72276e-15)
(25.0589 -25.8362 -3.62812e-15)
(23.3764 -26.3369 0)
(46.3724 -7.93442 -7.19974e-16)
(48.0234 -10.3584 1.77725e-15)
(45.5756 -12.803 4.44408e-15)
(43.2741 -15.2791 0)
(40.2208 -17.4465 4.08935e-15)
(37.1112 -19.2639 0)
(34.1205 -20.7235 2.5598e-18)
(31.3541 -21.8857 -3.73249e-15)
(28.8428 -22.8091 3.6527e-15)
(26.5873 -23.5501 0)
(24.5704 -24.16 0)
(22.7676 -24.6817 -6.88091e-15)
(46.886 -10.8534 1.91172e-23)
(47.7365 -9.68344 1.10341e-15)
(44.4579 -10.8849 3.08549e-18)
(41.7369 -12.888 -3.96373e-15)
(38.7385 -14.8493 -1.91663e-15)
(35.7736 -16.6786 -1.86273e-15)
(32.9433 -18.2531 -3.63932e-15)
(30.2979 -19.5559 -1.06975e-14)
(27.8607 -20.6084 -3.49775e-15)
(25.6374 -21.4506 -6.88819e-15)
(23.6215 -22.1284 6.7803e-15)
(21.8002 -22.686 6.67434e-15)
(43.5119 -4.80879 -1.15013e-15)
(42.3185 -6.63513 -5.20345e-16)
(38.8577 -7.63176 2.60774e-18)
(36.4906 -9.5777 3.74844e-15)
(34.3023 -11.6471 0)
(32.1114 -13.6202 -3.53984e-15)
(29.9313 -15.3472 3.46558e-15)
(27.7915 -16.796 3.40408e-15)
(25.732 -17.9754 -1.00778e-14)
(23.7824 -18.9193 6.62362e-15)
(21.9601 -19.671 -6.53922e-15)
(20.2732 -20.2744 0)
(24.0996 -40.336 8.04252e-15)
(23.713 -42.7882 -2.16168e-14)
(22.4151 -44.1595 5.4426e-15)
(21.0211 -45.0474 1.37408e-14)
(19.2596 -44.9206 -1.36088e-14)
(17.3856 -44.3418 2.7011e-15)
(15.4183 -42.7269 -1.38802e-18)
(13.4481 -40.4526 -2.68773e-15)
(11.5724 -37.187 -5.42388e-15)
(9.51022 -33.0456 0)
(6.17543 -27.5176 0)
(-0.178236 -25.1428 -5.5476e-16)
(29.3299 -35.244 -1.08868e-19)
(28.8289 -36.4624 7.02278e-15)
(27.9161 -37.5689 -9.69825e-18)
(26.615 -38.6347 0)
(24.9711 -39.4658 5.25792e-15)
(23.2817 -39.8402 0)
(21.6419 -39.6543 3.65755e-15)
(20.2028 -38.8891 5.74359e-15)
(19.1068 -37.5721 -4.09722e-15)
(18.2198 -34.9996 0)
(17.0737 -31.6455 0)
(13.6016 -31.7507 -4.63919e-20)
(26.136 -35.8363 2.81283e-15)
(25.3442 -36.5182 -2.75385e-15)
(24.446 -37.1668 2.72287e-15)
(23.4902 -37.7185 0)
(22.5379 -38.051 -2.75382e-15)
(21.6603 -38.096 5.64623e-15)
(20.9488 -37.813 -7.348e-15)
(20.4939 -37.1978 -7.77179e-15)
(20.4365 -36.301 4.88904e-15)
(20.6451 -34.7135 0)
(20.6783 -32.168 8.99281e-16)
(20.4922 -33.5688 1.02652e-20)
(25.4759 -34.1986 2.43588e-15)
(24.6263 -34.6523 -4.7479e-15)
(23.7653 -35.1242 4.65558e-15)
(22.9175 -35.551 -4.61898e-15)
(22.139 -35.8659 0)
(21.505 -36.024 2.3246e-15)
(21.1166 -35.9946 2.39932e-15)
(20.9952 -35.782 1.28599e-15)
(21.2843 -35.4378 -2.69207e-15)
(22.1374 -34.6862 0)
(23.3495 -32.6315 -7.94867e-16)
(25.09 -35.7432 1.29615e-15)
(24.5745 -32.6051 4.36632e-15)
(23.6237 -33.0579 -2.12136e-15)
(22.7354 -33.5134 0)
(21.9338 -33.9385 0)
(21.2616 -34.3031 2.04813e-15)
(20.7828 -34.5906 -1.9837e-15)
(20.5904 -34.7721 -2.50245e-18)
(20.7079 -34.8938 0)
(21.3009 -34.9339 -1.19284e-15)
(22.4878 -34.85 1.20014e-15)
(24.3603 -33.5345 -1.49243e-15)
(27.3824 -37.6039 0)
(23.7957 -31.1122 -8.03883e-15)
(22.7779 -31.5641 3.91117e-15)
(21.8617 -32.0273 7.66887e-15)
(21.0675 -32.4856 4.89835e-20)
(20.4313 -32.9275 -9.40735e-15)
(20.0044 -33.3517 -3.77632e-15)
(19.8498 -33.773 -2.35995e-18)
(20.0348 -34.2097 0)
(20.6827 -34.6739 0)
(21.9673 -35.2281 -1.18204e-15)
(24.332 -34.7172 -7.03083e-16)
(28.4354 -39.3828 4.43145e-16)
(23.1077 -29.6781 3.77842e-15)
(22.0011 -30.147 -7.37443e-15)
(21.0215 -30.6306 -3.61372e-15)
(20.1835 -31.1287 -1.91074e-18)
(19.5153 -31.6469 3.53011e-15)
(19.0584 -32.2008 3.51721e-15)
(18.8661 -32.8184 1.769e-15)
(19.0016 -33.536 1.80366e-15)
(19.5778 -34.3825 -1.89435e-15)
(20.7899 -35.4694 0)
(23.1227 -35.7828 1.25711e-15)
(28.0694 -40.7558 -8.26156e-16)
(22.4865 -28.272 0)
(21.2717 -28.7469 3.52518e-15)
(20.2017 -29.2373 0)
(19.2842 -29.7563 -1.89847e-18)
(18.5383 -30.3245 -4.76654e-20)
(17.9938 -30.9728 6.70119e-15)
(17.6912 -31.7465 -1.66596e-15)
(17.6859 -32.7061 -3.35874e-15)
(18.0744 -33.9062 -1.73479e-15)
(19.0633 -35.526 9.455e-16)
(21.2059 -36.7048 -1.70619e-15)
(26.5272 -41.7939 7.70234e-16)
(21.8763 -26.8078 3.47722e-15)
(20.5424 -27.2711 -3.41509e-15)
(19.3666 -27.7472 -3.3632e-15)
(18.3488 -28.2601 3.31723e-15)
(17.4968 -28.8426 3.27482e-15)
(16.8269 -29.5391 -9.70791e-15)
(16.3622 -30.4121 0)
(16.1407 -31.5481 1.59096e-15)
(16.2285 -33.035 1.61357e-15)
(16.8132 -35.1209 0)
(18.4948 -37.2063 1.55133e-15)
(23.5164 -42.272 -3.59159e-16)
(21.1573 -25.1497 0)
(19.7233 -25.5936 -6.65918e-15)
(18.4531 -26.0421 -3.28465e-15)
(17.3395 -26.5274 -6.47442e-15)
(16.3789 -27.092 3.19736e-15)
(15.5734 -27.7897 3.15435e-15)
(14.9229 -28.6972 0)
(14.439 -29.9214 0)
(14.1428 -31.5904 0)
(14.1704 -34.0394 0)
(15.014 -36.8407 -4.70911e-16)
(18.9685 -42.0259 -6.71122e-16)
(20.1594 -23.1633 3.29018e-15)
(18.6875 -23.5948 3.24211e-15)
(17.372 -24.0151 1.28094e-14)
(16.2008 -24.4615 3.16507e-15)
(15.1606 -24.9841 1.25069e-14)
(14.2394 -25.6415 -3.08857e-15)
(13.4148 -26.5193 -3.04469e-15)
(12.6659 -27.7255 0)
(11.9421 -29.427 -2.94695e-15)
(11.3239 -32.0428 -1.50111e-15)
(10.8642 -35.1542 -8.642e-16)
(12.4028 -40.5929 0)
(18.7241 -20.7729 0)
(17.3131 -21.2026 0)
(16.0329 -21.6017 -1.24787e-14)
(14.8712 -22.0088 -9.25241e-15)
(13.8109 -22.4774 -3.04895e-15)
(12.8285 -23.0598 0)
(11.8818 -23.8489 2.98229e-15)
(10.9179 -24.9288 0)
(9.801 -26.4922 -1.66243e-18)
(8.50348 -28.8653 1.42901e-15)
(6.41778 -32.4599 3.86473e-16)
(-0.910008 -37.3877 -1.63783e-19)
(-0.348377 -21.7234 -1.90777e-16)
(-0.948595 -18.6812 -2.98049e-15)
(-2.65376 -17.1388 3.03874e-15)
(-4.0592 -16.1403 -3.04024e-15)
(-5.39784 -15.4666 0)
(-6.24456 -15.4558 2.84824e-15)
(-7.74675 -17.4015 0)
(-14.7742 -16.9214 2.78726e-15)
(-27.5825 -15.7041 -8.50517e-15)
(-32.7587 -21.5274 8.48806e-15)
(-35.1121 -23.598 1.6752e-14)
(-38.7285 -25.4325 -5.27984e-15)
(5.71371 -25.6498 0)
(3.18975 -22.1385 -2.54393e-15)
(-0.741303 -22.5784 2.60148e-15)
(-3.76865 -22.2806 2.60708e-15)
(-7.24128 -24.1716 -5.29562e-15)
(-14 -24.9723 -7.80562e-19)
(-23.2178 -27.4107 -4.91319e-15)
(-29.5593 -29.0577 -1.11116e-14)
(-32.1678 -28.9665 1.29716e-14)
(-32.9088 -29.9045 -4.04224e-15)
(-33.3687 -30.0707 8.81845e-18)
(-34.7904 -30.2301 5.52318e-18)
(5.4674 -29.1709 0)
(1.58213 -26.1803 0)
(-4.25803 -27.4753 0)
(-10.3433 -27.6873 -2.29356e-15)
(-18.1231 -29.5466 0)
(-25.5127 -30.8021 -2.27766e-15)
(-30.3253 -31.1847 4.31499e-15)
(-32.9275 -30.6502 7.05246e-15)
(-34.1342 -29.5158 -3.30334e-15)
(-34.4464 -28.8551 -5.95802e-15)
(-34.9181 -28.1823 -8.5304e-15)
(-35.6113 -27.5235 8.32165e-15)
(5.32951 -32.7682 0)
(-0.307565 -31.4672 -1.04426e-15)
(-7.86222 -33.3318 2.05908e-15)
(-15.5097 -33.6349 2.06796e-15)
(-22.7858 -34.1741 0)
(-27.8361 -33.5378 -7.75078e-15)
(-30.6123 -32.4998 6.73851e-15)
(-32.2962 -31.0333 0)
(-33.06 -29.7245 5.59408e-15)
(-33.3574 -28.7026 -7.86679e-15)
(-33.7147 -27.7643 4.96468e-15)
(-34.0867 -26.8542 4.13275e-18)
(1.52045 -34.8686 -6.14242e-23)
(-3.65752 -35.3884 1.89146e-15)
(-11.1592 -36.8625 3.02488e-18)
(-18.4089 -36.7296 0)
(-24.3333 -36.0353 -3.54758e-15)
(-27.7781 -34.5022 6.3876e-15)
(-29.8507 -32.7875 0)
(-30.8555 -31.098 -2.77507e-15)
(-31.3562 -29.5407 -2.59378e-15)
(-31.6742 -28.2276 4.8331e-15)
(-32.0236 -27.0576 0)
(-32.4045 -25.9794 -4.34051e-15)
(-0.50274 -37.2036 4.75192e-16)
(-6.14652 -38.152 1.89844e-18)
(-13.128 -39.0712 -1.66454e-15)
(-19.4243 -38.3873 -6.53269e-15)
(-24.1024 -36.8783 -1.79799e-18)
(-26.7963 -34.8647 5.60423e-15)
(-28.2965 -32.869 0)
(-29.1574 -30.9326 7.45664e-15)
(-29.686 -29.2066 -4.64657e-15)
(-30.0709 -27.7112 4.37655e-15)
(-30.4454 -26.386 2.41695e-18)
(-30.8342 -25.1908 -4.48165e-19)
(-3.50304 -39.1198 -1.32764e-15)
(-8.32637 -40.7487 -7.91012e-16)
(-14.3405 -40.8472 0)
(-19.4463 -39.7051 5.83274e-15)
(-23.0899 -37.6154 -8.25564e-15)
(-25.2449 -35.2612 -1.29444e-18)
(-26.5704 -32.9718 -9.61672e-15)
(-27.4102 -30.8527 3.9409e-18)
(-27.9957 -28.9618 -4.26237e-15)
(-28.4571 -27.2973 -4.05468e-15)
(-28.8817 -25.8213 3.884e-15)
(-29.2994 -24.5007 -3.73797e-15)
(-5.24476 -41.4816 1.23753e-15)
(-9.67776 -43.2709 -7.28681e-16)
(-14.663 -42.5774 0)
(-18.6873 -41.0048 2.60644e-15)
(-21.6178 -38.4636 2.44965e-15)
(-23.5249 -35.7997 2.30649e-15)
(-24.7981 -33.2467 -3.72575e-18)
(-25.6855 -30.9134 -9.09917e-19)
(-26.3482 -28.8276 -3.95812e-15)
(-26.8812 -26.9807 -4.87419e-18)
(-27.3501 -25.3429 2.05272e-18)
(-27.7877 -23.8842 0)
(-7.57507 -43.0454 3.85999e-16)
(-10.7211 -45.641 0)
(-14.3538 -44.0753 0)
(-17.429 -42.1693 -2.31684e-15)
(-19.8562 -39.3124 2.19114e-15)
(-21.6508 -36.3837 -4.17807e-15)
(-22.959 -33.5812 0)
(-23.9326 -31.0207 3.8433e-15)
(-24.6801 -28.7265 -1.99327e-18)
(-25.2764 -26.6893 3.5957e-15)
(-25.7778 -24.8828 -3.50123e-15)
(-26.2212 -23.2787 6.8334e-15)
(-8.16977 -46.1899 -2.4051e-19)
(-10.691 -47.7803 -5.89397e-16)
(-13.1801 -45.141 -2.20458e-15)
(-15.6603 -42.7024 -4.18633e-15)
(-17.7757 -39.5835 0)
(-19.5201 -36.4678 3.85021e-15)
(-20.8975 -33.5094 -7.46078e-15)
(-21.974 -30.7993 3.62259e-15)
(-22.8142 -28.3608 3.53663e-15)
(-23.4763 -26.1861 0)
(-24.0111 -24.2533 -3.38378e-15)
(-24.4592 -22.5365 -6.62348e-15)
(-10.941 -46.8167 -6.40709e-16)
(-9.88527 -47.4511 5.44701e-16)
(-11.1153 -44.0192 2.02314e-15)
(-13.1596 -41.1667 1.94314e-15)
(-15.1184 -38.0901 -3.95176e-19)
(-16.8944 -35.0895 -5.45054e-15)
(-18.3871 -32.2599 7.07114e-15)
(-19.5963 -29.6436 1.38313e-14)
(-20.5526 -27.2592 -1.01638e-14)
(-21.3009 -25.1068 -6.65764e-15)
(-21.8882 -23.174 6.53991e-15)
(-22.3583 -21.4436 0)
(-4.77814 -43.2861 1.1439e-15)
(-6.67518 -41.9768 5.18889e-16)
(-7.80645 -38.3794 9.48392e-16)
(-9.80873 -35.9397 3.67159e-15)
(-11.8735 -33.6635 0)
(-13.7872 -31.4075 3.43803e-15)
(-15.4252 -29.1941 -6.72575e-15)
(-16.7726 -27.0544 -3.29701e-15)
(-17.8476 -25.0265 -3.24652e-15)
(-18.6895 -23.1366 6.39678e-15)
(-19.3414 -21.3955 3.15885e-15)
(-19.8494 -19.8044 9.35415e-15)
(-41.3316 -25.0096 -2.66265e-15)
(-43.7499 -24.639 2.69627e-15)
(-45.0526 -23.1435 -8.12841e-15)
(-45.9039 -21.7284 2.44916e-14)
(-45.7255 -19.7905 -1.0783e-14)
(-45.0888 -17.8712 0)
(-43.3958 -15.7668 -5.33251e-15)
(-41.0441 -13.753 4.00933e-15)
(-37.6752 -11.7962 0)
(-33.4078 -9.69834 9.14329e-19)
(-27.7878 -6.3545 0)
(-25.3107 0.100931 3.70432e-16)
(-35.7852 -30.0947 -1.39395e-14)
(-37.0403 -29.5543 6.81662e-15)
(-38.1798 -28.5539 6.75472e-15)
(-39.2602 -27.1819 -3.3825e-15)
(-40.0591 -25.5 0)
(-40.3941 -23.7705 0)
(-40.1551 -22.093 3.56343e-15)
(-39.3332 -20.6176 -3.74552e-15)
(-37.948 -19.4801 0)
(-35.264 -18.5673 1.03364e-15)
(-31.866 -17.4518 -2.47899e-19)
(-31.8724 -14.2501 -1.35435e-15)
(-36.2257 -26.8059 2.72142e-15)
(-36.9222 -25.9941 -5.29487e-15)
(-37.587 -25.0658 0)
(-38.1331 -24.0798 -5.24647e-15)
(-38.4484 -23.0933 -5.30708e-15)
(-38.4662 -22.1857 1.08912e-14)
(-38.1471 -21.4435 -8.52742e-15)
(-37.488 -20.9665 0)
(-36.5237 -20.8899 0)
(-34.8492 -21.1031 0)
(-32.2694 -21.1658 -8.85397e-16)
(-33.5782 -21.0279 0)
(-34.4687 -25.9943 -2.34381e-15)
(-34.9524 -25.1461 -3.62171e-18)
(-35.4348 -24.2792 0)
(-35.855 -23.4263 -3.39975e-18)
(-36.1499 -22.6449 0)
(-36.2771 -22.0111 0)
(-36.2104 -21.6148 2.33313e-15)
(-35.9495 -21.5033 -2.49829e-15)
(-35.5629 -21.796 2.65527e-15)
(-34.7618 -22.6386 0)
(-32.7208 -23.8903 -7.754e-16)
(-35.7469 -25.8109 1.03218e-15)
(-32.8203 -24.9868 8.36398e-15)
(-33.2739 -24.0548 -2.03249e-15)
(-33.7188 -23.1826 3.98544e-15)
(-34.124 -22.3956 1.97239e-15)
(-34.4614 -21.7376 -5.89335e-15)
(-34.7146 -21.2758 0)
(-34.8645 -21.0934 -1.96848e-15)
(-34.9497 -21.2238 0)
(-34.9545 -21.8243 0)
(-34.8495 -23.0067 1.17465e-15)
(-33.5224 -24.9084 3.94255e-19)
(-37.5252 -28.0057 1.27483e-18)
(-31.2479 -24.1082 -3.84997e-15)
(-31.6845 -23.1216 -2.38243e-18)
(-32.1238 -22.2351 0)
(-32.5521 -21.4697 0)
(-32.9603 -20.862 -5.42947e-15)
(-33.3502 -20.4633 3.63288e-15)
(-33.7393 -20.3342 3.69287e-15)
(-34.1483 -20.5427 1.91277e-15)
(-34.5957 -21.2073 -4.09249e-15)
(-35.1282 -22.5045 -1.1514e-15)
(-34.6768 -24.8809 0)
(-39.2777 -29.0501 4.41304e-16)
(-29.7245 -23.3159 -7.25327e-15)
(-30.1617 -22.2541 3.53384e-15)
(-30.6086 -21.3173 3.47258e-15)
(-31.067 -20.5212 1.8756e-18)
(-31.5454 -19.8938 -3.89191e-18)
(-32.0624 -19.4761 -3.39149e-15)
(-32.6493 -19.3182 -5.11655e-15)
(-33.3457 -19.4816 -1.7439e-15)
(-34.1871 -20.0743 1.83399e-15)
(-35.2759 -21.2889 0)
(-35.6591 -23.6152 1.85549e-15)
(-40.5877 -28.5397 -1.23457e-15)
(-28.2142 -22.5833 6.91997e-15)
(-28.6429 -21.4268 -3.39212e-15)
(-29.0849 -20.4126 -3.33329e-15)
(-29.5559 -19.5493 -6.57253e-15)
(-30.0792 -18.8557 6.5035e-15)
(-30.6893 -18.3604 -1.87349e-18)
(-31.4352 -18.1003 9.65603e-15)
(-32.3811 -18.1263 1.62162e-15)
(-33.59 -18.5292 1.68091e-15)
(-35.2345 -19.5122 0)
(-36.508 -21.6374 -1.11601e-15)
(-41.5947 -26.8626 3.83931e-16)
(-26.6335 -21.8541 0)
(-27.0371 -20.5923 3.28195e-15)
(-27.4542 -19.4855 3.232e-15)
(-27.9119 -18.534 -3.19147e-15)
(-28.446 -17.7452 -1.43246e-18)
(-29.1044 -17.1338 -3.12153e-15)
(-29.9539 -16.7184 -3.08857e-15)
(-31.0846 -16.5304 0)
(-32.5938 -16.6276 -1.56372e-15)
(-34.7253 -17.1898 -8.41416e-16)
(-36.9078 -18.8146 2.53827e-15)
(-42.0387 -23.6488 -3.55434e-16)
(-24.8539 -21.0134 0)
(-25.2253 -19.6645 0)
(-25.6049 -18.476 0)
(-26.0287 -17.4403 -9.36018e-15)
(-26.5426 -16.5533 6.16437e-15)
(-27.204 -15.8144 6.08837e-15)
(-28.0947 -15.2189 0)
(-29.3252 -14.7708 -2.96789e-15)
(-31.0333 -14.4791 0)
(-33.5502 -14.473 -1.55766e-15)
(-36.4481 -15.212 -4.62782e-16)
(-41.7735 -18.8707 -6.66711e-16)
(-22.749 -19.8998 0)
(-23.0962 -18.5243 0)
(-23.4389 -17.3016 6.17833e-15)
(-23.8191 -16.2182 9.15586e-15)
(-24.2904 -15.2602 3.08726e-18)
(-24.9152 -14.4124 2.98554e-15)
(-25.7861 -13.647 -1.47227e-15)
(-27.0149 -12.9342 4.3426e-15)
(-28.7781 -12.2099 2.86117e-15)
(-31.4861 -11.5454 1.46228e-15)
(-34.7137 -10.9388 -8.50361e-16)
(-40.3325 -12.0501 -1.24686e-15)
(-20.2523 -18.3625 0)
(-20.5889 -17.0588 0)
(-20.9031 -15.8808 -6.02733e-15)
(-21.2404 -14.8144 2.98563e-15)
(-21.6592 -13.8419 -2.95236e-15)
(-22.2181 -12.9371 -2.92325e-15)
(-23.0183 -12.0487 2.89187e-15)
(-24.1503 -11.1182 0)
(-25.8151 -9.9958 -2.79228e-15)
(-28.3174 -8.64379 -1.3962e-15)
(-32.0504 -6.35937 1.14706e-15)
(-37.2681 1.4796 2.08448e-19)
(-21.777 0.639576 -1.64545e-19)
(-18.8634 1.15528 0)
(-17.4023 2.77914 0)
(-16.2875 4.25754 -6.0881e-15)
(-15.7252 5.5237 9.15844e-15)
(-15.4233 6.62841 0)
(-16.6989 7.47175 0)
(-17.7341 12.2395 2.7945e-15)
(-14.6499 24.9016 2.85463e-15)
(-19.6602 31.9814 8.5128e-15)
(-22.5078 34.0265 1.41439e-14)
(-24.2188 37.7077 -2.65123e-15)
(-25.5916 -5.38865 -2.47345e-19)
(-22.1883 -3.03973 0)
(-22.5428 0.693927 0)
(-22.0343 3.74975 -2.60991e-15)
(-23.4994 6.68414 5.29293e-15)
(-24.5854 11.9865 -1.58881e-14)
(-26.0013 21.0594 1.00563e-14)
(-28.348 28.3198 2.29677e-15)
(-28.069 31.6366 -4.29007e-15)
(-28.9319 32.7108 7.1577e-18)
(-29.2369 32.9316 0)
(-29.316 34.3393 -7.41132e-15)
(-28.9747 -5.15628 3.06501e-16)
(-25.9365 -1.68685 0)
(-26.9507 3.73046 0)
(-26.9997 9.16071 -2.17061e-18)
(-28.3833 16.1308 2.67506e-18)
(-29.947 23.9279 -4.61148e-15)
(-30.3559 29.322 0)
(-30.2216 32.3813 -1.09553e-14)
(-28.9315 33.7809 1.0315e-14)
(-28.2005 34.2131 -3.08291e-15)
(-27.536 34.5693 -5.90438e-15)
(-26.8354 35.2407 8.51309e-15)
(-32.6356 -5.5941 1.12676e-15)
(-31.0134 -0.39207 1.04878e-15)
(-32.6878 6.69293 0)
(-32.8953 14.0055 2.07986e-15)
(-33.4688 21.4174 -2.06715e-15)
(-33.0841 27.0765 3.98316e-15)
(-32.0441 30.2163 0)
(-30.7102 31.9183 -3.07632e-15)
(-29.3036 32.8127 -8.74092e-15)
(-28.2292 33.1545 5.46662e-15)
(-27.2757 33.4669 5.17861e-15)
(-26.3472 33.8606 -9.91475e-15)
(-34.7851 -2.03551 -5.15709e-16)
(-35.0544 2.79654 -9.5275e-16)
(-36.5485 10.0616 1.87758e-15)
(-36.48 17.2774 0)
(-35.9119 23.5646 -7.30522e-15)
(-34.4401 27.3856 6.66683e-15)
(-32.6557 29.5183 3.13203e-15)
(-30.9271 30.6304 2.87004e-15)
(-29.3011 31.1782 0)
(-27.9191 31.5075 0)
(-26.7067 31.8353 0)
(-25.5924 32.2078 -6.55195e-18)
(-37.3046 -0.265029 6.30612e-19)
(-38.0525 5.2229 0)
(-39.1313 12.163 -1.69541e-15)
(-38.5319 18.5731 3.35068e-15)
(-37.0712 23.5639 3.20142e-15)
(-35.0013 26.4494 -5.82665e-15)
(-32.9302 28.0262 2.77253e-15)
(-30.9224 28.9582 -1.03382e-14)
(-29.1116 29.5275 -1.40096e-18)
(-27.5398 29.9288 -3.61835e-18)
(-26.1579 30.3028 2.49945e-18)
(-24.915 30.695 1.24825e-14)
(-39.2621 2.86108 4.44428e-16)
(-40.8544 7.52924 1.60359e-15)
(-41.1337 13.5635 -3.0852e-15)
(-40.0747 18.7662 -2.98537e-15)
(-37.9815 22.6156 -5.65764e-15)
(-35.5545 24.9074 -2.6532e-15)
(-33.1861 26.3145 -4.96747e-15)
(-30.9843 27.2233 9.34962e-15)
(-29.0065 27.8537 0)
(-27.2629 28.3448 8.42762e-15)
(-25.7205 28.7894 -1.21153e-14)
(-24.342 29.2286 3.89709e-15)
(-41.6447 4.67512 -8.265e-16)
(-43.4762 9.02615 -2.20509e-15)
(-42.9662 14.0253 4.17016e-15)
(-41.487 18.1025 0)
(-38.95 21.1751 -2.50838e-15)
(-36.2316 23.1985 4.73339e-15)
(-33.6064 24.5588 -2.36755e-18)
(-31.1904 25.5197 9.67375e-19)
(-29.018 26.2395 -4.09436e-15)
(-27.089 26.8179 -7.87378e-15)
(-25.3767 27.3259 3.8024e-15)
(-23.8498 27.8033 -3.69424e-15)
(-43.1988 7.18789 -7.7312e-16)
(-45.8953 10.235 0)
(-44.5022 13.8516 0)
(-42.7143 16.9494 0)
(-39.8928 19.4675 2.23277e-15)
(-36.9398 21.3572 0)
(-34.0808 22.7505 -3.13801e-18)
(-31.4457 23.8025 7.92184e-15)
(-29.0678 24.6195 2.25594e-18)
(-26.9463 25.2775 3.72276e-15)
(-25.0589 25.8363 -3.63012e-15)
(-23.3764 26.3369 1.06481e-14)
(-46.3724 7.93442 -1.44021e-15)
(-48.0234 10.3584 2.96491e-15)
(-45.5756 12.803 -1.1108e-15)
(-43.2741 15.2791 0)
(-40.2208 17.4465 0)
(-37.1112 19.2639 0)
(-34.1205 20.7235 0)
(-31.3541 21.8857 3.73499e-15)
(-28.8428 22.8091 -1.45982e-14)
(-26.5873 23.5501 -7.14635e-15)
(-24.5703 24.16 7.00683e-15)
(-22.7676 24.6817 3.445e-15)
(-46.886 10.8534 -6.42565e-16)
(-47.7365 9.68343 -1.65332e-15)
(-44.4579 10.8849 -1.02836e-15)
(-41.7369 12.888 0)
(-38.7385 14.8493 0)
(-35.7736 16.6786 3.72756e-15)
(-32.9433 18.2531 -7.27705e-15)
(-30.2979 19.5559 1.42624e-14)
(-27.8607 20.6084 1.05026e-14)
(-25.6374 21.4506 6.88263e-15)
(-23.6215 22.1284 -6.77509e-15)
(-21.8002 22.686 4.93333e-18)
(-43.5119 4.80879 -1.15553e-18)
(-42.3185 6.63513 0)
(-38.8577 7.63175 1.92248e-15)
(-36.4906 9.5777 -5.62808e-15)
(-34.3023 11.6471 5.45013e-15)
(-32.1114 13.6202 2.9817e-18)
(-29.9313 15.3472 3.46558e-15)
(-27.7915 16.796 -3.4064e-15)