/*--------------------------------*- C++ -*----------------------------------*\
| =========                 |                                                 |
| \\      /  F ield         | OpenFOAM: The Open Source CFD Toolbox           |
|  \\    /   O peration     | Version:  2212                                  |
|   \\  /    A nd           | Website:  www.openfoam.com                      |
|    \\/     M anipulation  |                                                 |
\*---------------------------------------------------------------------------*/
FoamFile
{
    version     2.0;
    format      ascii;
    arch        "LSB;label=32;scalar=64";
    class       volScalarField;
    location    "10";
    object      p;
}
// * * * * * * * * * * * * * * * * * * * * * * * * * * * * * * * * * * * * * //

dimensions      [0 2 -2 0 0 0 0];

internalField   nonuniform List<scalar> 
2000
(
30.4069
28.7066
27.5513
26.9008
26.454
26.1004
25.7911
25.5039
25.2277
24.9568
24.6882
24.4202
24.152
23.8831
23.6135
23.3431
23.0719
22.8
22.5276
22.2546
21.9813
21.7075
21.4335
21.1593
20.8848
20.6102
20.3354
20.0605
19.7855
19.5105
19.2353
18.9602
18.685
18.4097
18.1344
17.8591
17.5838
17.3085
17.0332
16.7578
16.4824
16.2071
15.9317
15.6563
15.3809
15.1055
14.8301
14.5548
14.2794
14.004
13.7286
13.4532
13.1778
12.9024
12.627
12.3516
12.0762
11.8008
11.5254
11.25
10.9746
10.6992
10.4238
10.1484
9.87305
9.59765
9.32226
9.04687
8.77147
8.49608
8.22069
7.9453
7.6699
7.39452
7.11913
6.84375
6.56837
6.29299
6.01762
5.74226
5.46692
5.19159
4.91628
4.64101
4.36579
4.09063
3.81557
3.54064
3.26589
2.9914
2.7173
2.44375
2.17103
1.89959
1.63018
1.36411
1.10349
0.806162
0.528102
0.197855
28.3605
28.0274
27.3429
26.7971
26.3799
26.0342
25.7273
25.4417
25.1679
24.9002
24.6354
24.3717
24.1078
23.8433
23.5779
23.3115
23.044
22.7755
22.5061
22.2359
21.965
21.6934
21.4213
21.1487
20.8757
20.6023
20.3286
20.0547
19.7805
19.5062
19.2317
18.957
18.6823
18.4074
18.1325
17.8575
17.5824
17.3073
17.0321
16.7569
16.4817
16.2064
15.9311
15.6558
15.3805
15.1052
14.8299
14.5545
14.2792
14.0038
13.7284
13.4531
13.1777
12.9023
12.6269
12.3515
12.0762
11.8008
11.5254
11.25
10.9746
10.6992
10.4238
10.1484
9.87304
9.59764
9.32225
9.04686
8.77147
8.49607
8.22068
7.94529
7.6699
7.39451
7.11913
6.84374
6.56836
6.29299
6.01762
5.74226
5.46691
5.19157
4.91626
4.64099
4.36575
4.09058
3.8155
3.54053
3.26574
2.99118
2.71697
2.44325
2.17024
1.89828
1.62793
1.36013
1.09707
0.772788
0.409339
0.123103
27.06
27.3864
27.0236
26.6078
26.2534
25.9403
25.6517
25.3776
25.1117
24.8503
24.5907
24.3316
24.0721
23.8115
23.5497
23.2866
23.0221
22.7563
22.4894
22.2213
21.9523
21.6824
21.4118
21.1405
20.8686
20.5962
20.3234
20.0502
19.7767
19.5029
19.2288
18.9546
18.6802
18.4056
18.131
17.8562
17.5813
17.3063
17.0313
16.7562
16.4811
16.2059
15.9307
15.6555
15.3802
15.1049
14.8296
14.5543
14.279
14.0037
13.7283
13.453
13.1776
12.9022
12.6269
12.3515
12.0761
11.8007
11.5253
11.25
10.9746
10.6992
10.4238
10.1484
9.87302
9.59763
9.32224
9.04685
8.77146
8.49607
8.22068
7.94529
7.6699
7.39451
7.11912
6.84374
6.56836
6.29298
6.0176
5.74224
5.46688
5.19154
4.91621
4.64092
4.36565
4.09044
3.8153
3.54026
3.26535
2.99063
2.71616
2.44204
2.1684
1.89544
1.62337
1.35254
1.08338
0.742641
0.322955
0.0678391
26.263
26.8575
26.6833
26.3781
26.0912
25.8202
25.5591
25.3037
25.0509
24.7991
24.547
24.2939
24.0393
23.783
23.5249
23.2649
23.0033
22.74
22.4752
22.209
21.9417
21.6732
21.4039
21.1336
20.8627
20.5911
20.319
20.0465
19.7735
19.5001
19.2265
18.9526
18.6785
18.4042
18.1297
17.8551
17.5804
17.3055
17.0306
16.7556
16.4806
16.2055
15.9304
15.6552
15.38
15.1047
14.8294
14.5542
14.2789
14.0035
13.7282
13.4529
13.1775
12.9022
12.6268
12.3514
12.0761
11.8007
11.5253
11.2499
10.9746
10.6992
10.4238
10.1484
9.87301
9.59762
9.32223
9.04684
8.77145
8.49606
8.22067
7.94528
7.66989
7.3945
7.11911
6.84373
6.56834
6.29296
6.01758
5.74221
5.46684
5.19148
4.91613
4.64081
4.3655
4.09023
3.81501
3.53985
3.26477
2.9898
2.71497
2.44033
2.16591
1.89174
1.61782
1.34402
1.06982
0.720401
0.290033
0.0494335
25.7158
26.4401
26.3799
26.1565
25.9261
25.694
25.4606
25.2252
24.9874
24.7469
24.5035
24.2573
24.0082
23.7565
23.5021
23.2454
22.9865
22.7255
22.4627
22.1983
21.9324
21.6653
21.397
21.1278
20.8577
20.5868
20.3153
20.0433
19.7707
19.4978
19.2245
18.9509
18.677
18.4029
18.1286
17.8542
17.5796
17.3049
17.0301
16.7552
16.4802
16.2051
15.9301
15.6549
15.3797
15.1045
14.8293
14.554
14.2787
14.0034
13.7281
13.4528
13.1775
12.9021
12.6268
12.3514
12.076
11.8007
11.5253
11.2499
10.9745
10.6992
10.4238
10.1484
9.873
9.59762
9.32223
9.04684
8.77145
8.49606
8.22067
7.94528
7.66988
7.39449
7.1191
6.84372
6.56833
6.29294
6.01755
5.74217
5.46678
5.19141
4.91603
4.64067
4.36532
4.08997
3.81465
3.53935
3.26407
2.98882
2.71361
2.43841
2.1632
1.88792
1.6124
1.33631
1.05892
0.705643
0.273494
0.0410803
25.332
26.122
26.1305
25.9643
25.7771
25.5767
25.367
25.1498
24.9261
24.6966
24.4619
24.2226
23.9792
23.732
23.4814
23.2278
22.9715
22.7127
22.4518
22.189
21.9245
21.6585
21.3912
21.1228
20.8534
20.5831
20.3122
20.0406
19.7684
19.4958
19.2228
18.9494
18.6758
18.4019
18.1277
17.8534
17.5789
17.3043
17.0296
16.7547
16.4798
16.2048
15.9298
15.6547
15.3796
15.1044
14.8292
14.5539
14.2786
14.0034
13.7281
13.4527
13.1774
12.9021
12.6267
12.3514
12.076
11.8006
11.5253
11.2499
10.9745
10.6991
10.4238
10.1484
9.87299
9.59761
9.32222
9.04683
8.77144
8.49605
8.22066
7.94527
7.66988
7.39449
7.1191
6.8437
6.56831
6.29292
6.01752
5.74212
5.46673
5.19133
4.91593
4.64052
4.36512
4.0897
3.81427
3.53882
3.26335
2.98783
2.71224
2.43653
2.16063
1.88443
1.60769
1.33007
1.05094
0.696315
0.264896
0.0371926
25.0608
25.8854
25.9359
25.8088
25.6533
25.4771
25.2862
25.0838
24.8719
24.6519
24.425
24.192
23.9537
23.7107
23.4635
23.2128
22.9588
22.702
22.4427
22.1812
21.9179
21.6528
21.3864
21.1187
20.8499
20.5802
20.3096
20.0384
19.7666
19.4942
19.2214
18.9483
18.6748
18.401
18.127
17.8528
17.5784
17.3039
17.0292
16.7544
16.4796
16.2046
15.9296
15.6545
15.3794
15.1042
14.829
14.5538
14.2786
14.0033
13.728
13.4527
13.1774
12.902
12.6267
12.3513
12.076
11.8006
11.5253
11.2499
10.9745
10.6991
10.4238
10.1484
9.87299
9.5976
9.32222
9.04683
8.77144
8.49605
8.22066
7.94527
7.66987
7.39448
7.11909
6.84369
6.56829
6.29289
6.01749
5.74208
5.46667
5.19125
4.91583
4.64039
4.36492
4.08944
3.81391
3.53833
3.26268
2.98691
2.711
2.43487
2.15842
1.88151
1.60394
1.32538
1.0454
0.690501
0.260207
0.0352617
24.8744
25.7177
25.7935
25.6921
25.5587
25.4
25.2228
25.0314
24.8285
24.616
24.3952
24.1673
23.9331
23.6936
23.4493
23.2008
22.9488
22.6936
22.4356
22.1752
21.9128
21.6485
21.3827
21.1155
20.8472
20.5779
20.3077
20.0367
19.7651
19.493
19.2204
18.9474
18.674
18.4004
18.1264
17.8523
17.578
17.3035
17.0289
16.7542
16.4793
16.2044
15.9294
15.6544
15.3793
15.1041
14.829
14.5538
14.2785
14.0032
13.728
13.4527
13.1773
12.902
12.6267
12.3513
12.076
11.8006
11.5252
11.2499
10.9745
10.6991
10.4237
10.1484
9.87298
9.5976
9.32221
9.04682
8.77143
8.49604
8.22065
7.94526
7.66987
7.39447
7.11908
6.84368
6.56828
6.29287
6.01746
5.74205
5.46663
5.19119
4.91574
4.64027
4.36476
4.08921
3.81361
3.53792
3.26212
2.98616
2.71
2.43354
2.15669
1.8793
1.60118
1.32209
1.04175
0.686946
0.257582
0.0342545
24.7571
25.6102
25.7003
25.6145
25.4951
25.3476
25.1795
24.9953
24.7984
24.5909
24.3743
24.1499
23.9187
23.6816
23.4393
23.1926
22.9419
22.6878
22.4307
22.1711
21.9093
21.6456
21.3802
21.1134
20.8454
20.5763
20.3064
20.0356
19.7642
19.4922
19.2197
18.9468
18.6735
18.3999
18.1261
17.852
17.5777
17.3033
17.0287
16.754
16.4792
16.2043
15.9293
15.6543
15.3792
15.1041
14.8289
14.5537
14.2785
14.0032
13.7279
13.4526
13.1773
12.902
12.6267
12.3513
12.076
11.8006
11.5252
11.2499
10.9745
10.6991
10.4237
10.1484
9.87298
9.59759
9.32221
9.04682
8.77143
8.49604
8.22065
7.94526
7.66986
7.39447
7.11907
6.84367
6.56827
6.29286
6.01745
5.74202
5.46659
5.19114
4.91568
4.64018
4.36464
4.08905
3.81339
3.53762
3.26172
2.98563
2.7093
2.43262
2.15551
1.87782
1.59938
1.32002
1.03954
0.684905
0.256158
0.0337327
24.7004
25.5577
25.6542
25.5758
25.4632
25.3212
25.1575
24.977
24.7831
24.5781
24.3636
24.141
23.9113
23.6755
23.4342
23.1883
22.9383
22.6848
22.4282
22.169
21.9075
21.6441
21.3789
21.1124
20.8445
20.5756
20.3057
20.0351
19.7637
19.4918
19.2194
18.9465
18.6733
18.3997
18.1259
17.8518
17.5776
17.3032
17.0286
16.7539
16.4791
16.2042
15.9293
15.6543
15.3792
15.104
14.8289
14.5537
14.2784
14.0032
13.7279
13.4526
13.1773
12.902
12.6266
12.3513
12.0759
11.8006
11.5252
11.2499
10.9745
10.6991
10.4237
10.1484
9.87297
9.59759
9.3222
9.04682
8.77143
8.49604
8.22065
7.94526
7.66986
7.39447
7.11907
6.84366
6.56826
6.29285
6.01743
5.74201
5.46657
5.19112
4.91564
4.64013
4.36458
4.08897
3.81327
3.53747
3.26151
2.98536
2.70893
2.43216
2.15492
1.87708
1.5985
1.31902
1.03851
0.683973
0.255526
0.0335076
24.7004
25.5577
25.6542
25.5758
25.4632
25.3212
25.1575
24.977
24.7831
24.5781
24.3636
24.141
23.9113
23.6755
23.4342
23.1883
22.9383
22.6848
22.4282
22.169
21.9075
21.6441
21.3789
21.1124
20.8445
20.5756
20.3057
20.0351
19.7637
19.4918
19.2194
18.9465
18.6733
18.3997
18.1259
17.8518
17.5776
17.3032
17.0286
16.7539
16.4791
16.2042
15.9293
15.6543
15.3792
15.104
14.8289
14.5537
14.2784
14.0032
13.7279
13.4526
13.1773
12.902
12.6266
12.3513
12.0759
11.8006
11.5252
11.2499
10.9745
10.6991
10.4237
10.1484
9.87297
9.59759
9.3222
9.04682
8.77143
8.49604
8.22065
7.94526
7.66986
7.39446
7.11906
6.84366
6.56826
6.29285
6.01743
5.74201
5.46657
5.19112
4.91564
4.64013
4.36458
4.08897
3.81327
3.53747
3.26151
2.98536
2.70894
2.43216
2.15492
1.87708
1.5985
1.31902
1.0385
0.683973
0.255526
0.033508
24.7571
25.6102
25.7003
25.6145
25.4951
25.3476
25.1795
24.9953
24.7984
24.5909
24.3743
24.1499
23.9187
23.6816
23.4393
23.1925
22.9418
22.6877
22.4307
22.1711
21.9093
21.6456
21.3802
21.1134
20.8454
20.5763
20.3064
20.0356
19.7642
19.4922
19.2197
18.9468
18.6735
18.3999
18.1261
17.852
17.5777
17.3033
17.0287
16.754
16.4792
16.2043
15.9293
15.6543
15.3792
15.1041
14.8289
14.5537
14.2785
14.0032
13.7279
13.4526
13.1773
12.902
12.6266
12.3513
12.076
11.8006
11.5252
11.2499
10.9745
10.6991
10.4237
10.1484
9.87297
9.59759
9.3222
9.04682
8.77143
8.49604
8.22065
7.94526
7.66986
7.39446
7.11907
6.84367
6.56826
6.29286
6.01744
5.74202
5.46659
5.19115
4.91568
4.64018
4.36464
4.08905
3.81339
3.53762
3.26172
2.98563
2.7093
2.43263
2.15551
1.87782
1.59938
1.32002
1.03954
0.684906
0.256158
0.0337326
24.8744
25.7177
25.7935
25.6921
25.5588
25.4
25.2228
25.0314
24.8285
24.616
24.3952
24.1673
23.9331
23.6936
23.4493
23.2008
22.9488
22.6935
22.4356
22.1752
21.9128
21.6485
21.3827
21.1155
20.8472
20.5779
20.3077
20.0367
19.7651
19.493
19.2204
18.9474
18.674
18.4004
18.1264
17.8523
17.578
17.3035
17.0289
16.7542
16.4793
16.2044
15.9294
15.6544
15.3793
15.1041
14.829
14.5537
14.2785
14.0032
13.728
13.4526
13.1773
12.902
12.6267
12.3513
12.076
11.8006
11.5252
11.2499
10.9745
10.6991
10.4237
10.1484
9.87297
9.59759
9.32221
9.04682
8.77143
8.49604
8.22065
7.94526
7.66986
7.39447
7.11907
6.84367
6.56827
6.29287
6.01746
5.74205
5.46663
5.19119
4.91574
4.64027
4.36476
4.08921
3.81361
3.53792
3.26212
2.98617
2.71
2.43354
2.15669
1.8793
1.60118
1.32209
1.04175
0.686947
0.257583
0.0342548
25.0608
25.8854
25.9359
25.8088
25.6533
25.4771
25.2862
25.0838
24.8719
24.6519
24.425
24.192
23.9537
23.7107
23.4635
23.2128
22.9588
22.702
22.4427
22.1812
21.9179
21.6528
21.3864
21.1187
20.8499
20.5801
20.3096
20.0384
19.7666
19.4942
19.2214
18.9483
18.6748
18.401
18.127
17.8528
17.5784
17.3039
17.0292
16.7544
16.4795
16.2046
15.9296
15.6545
15.3794
15.1042
14.829
14.5538
14.2786
14.0033
13.728
13.4527
13.1774
12.902
12.6267
12.3513
12.076
11.8006
11.5252
11.2499
10.9745
10.6991
10.4237
10.1484
9.87298
9.59759
9.32221
9.04682
8.77143
8.49604
8.22065
7.94526
7.66987
7.39447
7.11908
6.84368
6.56829
6.29289
6.01749
5.74208
5.46667
5.19126
4.91583
4.64039
4.36493
4.08944
3.81391
3.53833
3.26268
2.98692
2.711
2.43487
2.15842
1.88152
1.60394
1.32538
1.04541
0.690503
0.260208
0.0352619
25.332
26.122
26.1305
25.9643
25.7771
25.5767
25.367
25.1498
24.9261
24.6965
24.4619
24.2226
23.9792
23.732
23.4814
23.2278
22.9715
22.7127
22.4518
22.189
21.9244
21.6585
21.3912
21.1228
20.8534
20.5831
20.3122
20.0406
19.7684
19.4958
19.2228
18.9494
18.6758
18.4019
18.1277
17.8534
17.5789
17.3043
17.0296
16.7547
16.4798
16.2048
15.9298
15.6547
15.3795
15.1044
14.8291
14.5539
14.2786
14.0034
13.728
13.4527
13.1774
12.9021
12.6267
12.3514
12.076
11.8006
11.5253
11.2499
10.9745
10.6991
10.4238
10.1484
9.87298
9.5976
9.32221
9.04682
8.77143
8.49604
8.22065
7.94526
7.66987
7.39448
7.11909
6.84369
6.5683
6.29291
6.01752
5.74212
5.46673
5.19133
4.91593
4.64053
4.36512
4.0897
3.81427
3.53883
3.26335
2.98783
2.71224
2.43653
2.16064
1.88443
1.6077
1.33008
1.05094
0.696317
0.264898
0.0371932
25.7158
26.4401
26.3799
26.1565
25.9261
25.694
25.4606
25.2252
24.9874
24.7469
24.5035
24.2573
24.0082
23.7564
23.5021
23.2454
22.9864
22.7255
22.4627
22.1983
21.9324
21.6653
21.397
21.1278
20.8577
20.5868
20.3153
20.0433
19.7707
19.4978
19.2245
18.9509
18.677
18.4029
18.1286
17.8542
17.5796
17.3049
17.0301
16.7552
16.4802
16.2051
15.93
15.6549
15.3797
15.1045
14.8293
14.554
14.2787
14.0034
13.7281
13.4528
13.1775
12.9021
12.6268
12.3514
12.076
11.8007
11.5253
11.2499
10.9745
10.6991
10.4238
10.1484
9.87299
9.5976
9.32222
9.04683
8.77144
8.49605
8.22066
7.94526
7.66987
7.39448
7.11909
6.84371
6.56832
6.29293
6.01755
5.74216
5.46678
5.19141
4.91604
4.64067
4.36532
4.08998
3.81465
3.53935
3.26408
2.98883
2.71361
2.43841
2.16321
1.88792
1.6124
1.33631
1.05892
0.705646
0.273496
0.0410807
26.263
26.8575
26.6833
26.3781
26.0912
25.8202
25.5591
25.3037
25.0509
24.7991
24.547
24.2939
24.0393
23.783
23.5249
23.2649
23.0032
22.7399
22.4751
22.209
21.9416
21.6732
21.4038
21.1336
20.8627
20.5911
20.319
20.0464
19.7735
19.5001
19.2265
18.9526
18.6785
18.4042
18.1297
17.8551
17.5804
17.3055
17.0306
16.7556
16.4806
16.2055
15.9303
15.6552
15.3799
15.1047
14.8294
14.5542
14.2788
14.0035
13.7282
13.4529
13.1775
12.9022
12.6268
12.3514
12.0761
11.8007
11.5253
11.2499
10.9745
10.6992
10.4238
10.1484
9.873
9.59761
9.32222
9.04683
8.77144
8.49605
8.22066
7.94527
7.66988
7.39449
7.1191
6.84372
6.56833
6.29295
6.01758
5.7422
5.46684
5.19148
4.91613
4.64081
4.36551
4.09024
3.81501
3.53985
3.26477
2.9898
2.71497
2.44033
2.16591
1.89175
1.61783
1.34403
1.06983
0.720405
0.290036
0.0494343
27.0601
27.3864
27.0237
26.6078
26.2534
25.9403
25.6517
25.3776
25.1117
24.8503
24.5907
24.3316
24.0721
23.8115
23.5497
23.2865
23.0221
22.7563
22.4893
22.2213
21.9523
21.6824
21.4118
21.1405
20.8686
20.5962
20.3234
20.0502
19.7767
19.5029
19.2288
18.9546
18.6802
18.4056
18.131
17.8562
17.5813
17.3063
17.0313
16.7562
16.4811
16.2059
15.9307
15.6555
15.3802
15.1049
14.8296
14.5543
14.279
14.0036
13.7283
13.4529
13.1776
12.9022
12.6268
12.3515
12.0761
11.8007
11.5253
11.2499
10.9746
10.6992
10.4238
10.1484
9.87301
9.59762
9.32223
9.04683
8.77144
8.49605
8.22066
7.94527
7.66988
7.3945
7.11911
6.84373
6.56835
6.29297
6.0176
5.74223
5.46688
5.19154
4.91621
4.64092
4.36566
4.09045
3.81531
3.54027
3.26536
2.99063
2.71616
2.44204
2.16841
1.89544
1.62338
1.35255
1.08338
0.742646
0.322958
0.0678399
28.3605
28.0274
27.3429
26.7971
26.3799
26.0342
25.7273
25.4417
25.1679
24.9002
24.6354
24.3716
24.1078
23.8433
23.5779
23.3115
23.044
22.7755
22.5061
22.2359
21.965
21.6934
21.4213
21.1487
20.8757
20.6023
20.3286
20.0547
19.7805
19.5062
19.2317
18.957
18.6823
18.4074
18.1325
17.8575
17.5824
17.3073
17.0321
16.7569
16.4817
16.2064
15.9311
15.6558
15.3805
15.1052
14.8298
14.5545
14.2791
14.0038
13.7284
13.453
13.1777
12.9023
12.6269
12.3515
12.0761
11.8008
11.5254
11.25
10.9746
10.6992
10.4238
10.1484
9.87302
9.59763
9.32223
9.04684
8.77145
8.49606
8.22067
7.94528
7.66989
7.3945
7.11912
6.84374
6.56836
6.29298
6.01761
5.74225
5.4669
5.19157
4.91626
4.64099
4.36576
4.09059
3.8155
3.54054
3.26575
2.99119
2.71698
2.44325
2.17024
1.89829
1.62793
1.36014
1.09708
0.772794
0.409342
0.123104
30.4069
28.7066
27.5513
26.9008
26.454
26.1004
25.7911
25.5039
25.2277
24.9568
24.6882
24.4202
24.1519
23.8831
23.6135
23.343
23.0719
22.8
22.5276
22.2546
21.9813
21.7075
21.4335
21.1592
20.8848
20.6101
20.3354
20.0605
19.7855
19.5104
19.2353
18.9602
18.685
18.4097
18.1344
17.8591
17.5838
17.3085
17.0331
16.7578
16.4824
16.2071
15.9317
15.6563
15.3809
15.1055
14.8301
14.5547
14.2794
14.004
13.7286
13.4532
13.1778
12.9024
12.627
12.3516
12.0762
11.8008
11.5254
11.25
10.9746
10.6992
10.4238
10.1484
9.87303
9.59764
9.32224
9.04685
8.77145
8.49606
8.22067
7.94528
7.66989
7.39451
7.11912
6.84374
6.56836
6.29299
6.01762
5.74226
5.46692
5.19159
4.91628
4.64102
4.36579
4.09064
3.81558
3.54065
3.2659
2.99141
2.7173
2.44375
2.17103
1.89959
1.63019
1.36412
1.1035
0.806168
0.528105
0.197856
)
;

boundaryField
{
    inlet
    {
        type            zeroGradient;
    }
    outlet
    {
        type            fixedValue;
        value           uniform 0;
    }
    frontAndBack
    {
        type            empty;
    }
    walls
    {
        type            zeroGradient;
    }
}


// ************************************************************************* //
