/*--------------------------------*- C++ -*----------------------------------*\
| =========                 |                                                 |
| \\      /  F ield         | OpenFOAM: The Open Source CFD Toolbox           |
|  \\    /   O peration     | Version:  2212                                  |
|   \\  /    A nd           | Website:  www.openfoam.com                      |
|    \\/     M anipulation  |                                                 |
\*---------------------------------------------------------------------------*/
FoamFile
{
    version     2.0;
    format      ascii;
    arch        "LSB;label=32;scalar=64";
    class       surfaceScalarField;
    location    "10";
    object      phi;
}
// * * * * * * * * * * * * * * * * * * * * * * * * * * * * * * * * * * * * * //

dimensions      [0 3 -1 0 0 0 0];

oriented        oriented;

internalField   nonuniform List<scalar> 
3880
(
3.66879e-05
1.3312e-05
2.76657e-05
9.02231e-06
2.37961e-05
3.86959e-06
2.22472e-05
1.54885e-06
2.17896e-05
4.57569e-07
2.18587e-05
-6.908e-08
2.21835e-05
-3.2483e-07
2.26271e-05
-4.4352e-07
2.31162e-05
-4.8918e-07
2.36106e-05
-4.94396e-07
2.40875e-05
-4.76909e-07
2.45345e-05
-4.46999e-07
2.49454e-05
-4.10866e-07
2.53177e-05
-3.72356e-07
2.56516e-05
-3.33871e-07
2.59485e-05
-2.96877e-07
2.62107e-05
-2.62224e-07
2.64411e-05
-2.3036e-07
2.66425e-05
-2.01469e-07
2.68181e-05
-1.75549e-07
2.69706e-05
-1.52484e-07
2.71027e-05
-1.32102e-07
2.72169e-05
-1.14194e-07
2.73154e-05
-9.85279e-08
2.74003e-05
-8.48747e-08
2.74733e-05
-7.30129e-08
2.7536e-05
-6.2732e-08
2.75899e-05
-5.38422e-08
2.7636e-05
-4.61741e-08
2.76756e-05
-3.95702e-08
2.77095e-05
-3.38864e-08
2.77385e-05
-2.89977e-08
2.77633e-05
-2.4798e-08
2.77845e-05
-2.1195e-08
2.78026e-05
-1.81074e-08
2.7818e-05
-1.54634e-08
2.78312e-05
-1.31995e-08
2.78425e-05
-1.12612e-08
2.78521e-05
-9.60275e-09
2.78603e-05
-8.18572e-09
2.78673e-05
-6.97559e-09
2.78732e-05
-5.94104e-09
2.78783e-05
-5.05577e-09
2.78826e-05
-4.29935e-09
2.78862e-05
-3.65489e-09
2.78893e-05
-3.1064e-09
2.7892e-05
-2.6386e-09
2.78942e-05
-2.23882e-09
2.78961e-05
-1.89775e-09
2.78977e-05
-1.60807e-09
2.78991e-05
-1.36262e-09
2.79002e-05
-1.1541e-09
2.79012e-05
-9.76202e-10
2.7902e-05
-8.24315e-10
2.79027e-05
-6.95051e-10
2.79033e-05
-5.85349e-10
2.79038e-05
-4.92257e-10
2.79042e-05
-4.13385e-10
2.79046e-05
-3.47142e-10
2.79049e-05
-2.92215e-10
2.79051e-05
-2.46791e-10
2.79053e-05
-2.08439e-10
2.79055e-05
-1.74868e-10
2.79056e-05
-1.44901e-10
2.79058e-05
-1.18711e-10
2.79059e-05
-9.70589e-11
2.7906e-05
-8.01194e-11
2.7906e-05
-6.68575e-11
2.79061e-05
-5.54691e-11
2.79061e-05
-4.44989e-11
2.79062e-05
-3.36483e-11
2.79062e-05
-2.35397e-11
2.79062e-05
-1.46777e-11
2.79062e-05
-6.61816e-12
2.79062e-05
1.93892e-12
2.79062e-05
1.24646e-11
2.79062e-05
2.61977e-11
2.79061e-05
4.43019e-11
2.7906e-05
6.81273e-11
2.79059e-05
9.9401e-11
2.79058e-05
1.4083e-10
2.79056e-05
1.97082e-10
2.79053e-05
2.75112e-10
2.7905e-05
3.83897e-10
2.79044e-05
5.35639e-10
2.79037e-05
7.4897e-10
2.79026e-05
1.05211e-09
2.79011e-05
1.48776e-09
2.7899e-05
2.12413e-09
2.78959e-05
3.07276e-09
2.78914e-05
4.52321e-09
2.78846e-05
6.82113e-09
2.78739e-05
1.06321e-08
2.78566e-05
1.73068e-08
2.78269e-05
2.9694e-08
2.77733e-05
5.36841e-08
2.7674e-05
9.92928e-08
2.73441e-05
3.29887e-07
2.64865e-05
8.57542e-07
7.40689e-07
5.0857e-05
1.2455e-05
4.76713e-05
1.2208e-05
4.46914e-05
6.84952e-06
4.29328e-05
3.30749e-06
4.21361e-05
1.25423e-06
4.19814e-05
8.56393e-08
4.22239e-05
-5.67366e-07
4.26957e-05
-9.15326e-07
4.32867e-05
-1.08015e-06
4.39264e-05
-1.13407e-06
4.45705e-05
-1.12104e-06
4.51921e-05
-1.06855e-06
4.57754e-05
-9.94148e-07
4.63122e-05
-9.09137e-07
4.67991e-05
-8.2081e-07
4.7236e-05
-7.33784e-07
4.76247e-05
-6.50886e-07
4.79681e-05
-5.73737e-07
4.82698e-05
-5.0315e-07
4.85336e-05
-4.39394e-07
4.87635e-05
-3.82378e-07
4.89632e-05
-3.31782e-07
4.91362e-05
-2.87167e-07
4.92857e-05
-2.48032e-07
4.94147e-05
-2.13853e-07
4.95258e-05
-1.84104e-07
4.96213e-05
-1.58286e-07
4.97034e-05
-1.35937e-07
4.97739e-05
-1.16631e-07
4.98343e-05
-9.99818e-08
4.9886e-05
-8.56424e-08
4.99304e-05
-7.33088e-08
4.99683e-05
-6.27135e-08
5.00007e-05
-5.36208e-08
5.00284e-05
-4.58232e-08
5.00521e-05
-3.9139e-08
5.00723e-05
-3.34118e-08
5.00895e-05
-2.85083e-08
5.01042e-05
-2.43145e-08
5.01168e-05
-2.07298e-08
5.01275e-05
-1.76654e-08
5.01366e-05
-1.50452e-08
5.01443e-05
-1.2806e-08
5.01509e-05
-1.08947e-08
5.01565e-05
-9.26451e-09
5.01613e-05
-7.87393e-09
5.01654e-05
-6.68745e-09
5.01688e-05
-5.67601e-09
5.01717e-05
-4.81515e-09
5.01742e-05
-4.08294e-09
5.01763e-05
-3.45942e-09
5.01781e-05
-2.92764e-09
5.01796e-05
-2.47427e-09
5.01808e-05
-2.08879e-09
5.01819e-05
-1.76204e-09
5.01828e-05
-1.48548e-09
5.01836e-05
-1.25152e-09
5.01842e-05
-1.05386e-09
5.01848e-05
-8.87322e-10
5.01852e-05
-7.47048e-10
5.01856e-05
-6.28204e-10
5.01859e-05
-5.26464e-10
5.01862e-05
-4.38849e-10
5.01864e-05
-3.63971e-10
5.01866e-05
-3.01323e-10
5.01868e-05
-2.50049e-10
5.01869e-05
-2.08154e-10
5.0187e-05
-1.72795e-10
5.01871e-05
-1.41411e-10
5.01872e-05
-1.12741e-10
5.01872e-05
-8.67918e-11
5.01873e-05
-6.37309e-11
5.01873e-05
-4.27452e-11
5.01873e-05
-2.18791e-11
5.01873e-05
1.22825e-12
5.01873e-05
2.87211e-11
5.01872e-05
6.26595e-11
5.01872e-05
1.05548e-10
5.01871e-05
1.60799e-10
5.0187e-05
2.33338e-10
5.01868e-05
3.30576e-10
5.01865e-05
4.63387e-10
5.01861e-05
6.46785e-10
5.01856e-05
9.01062e-10
5.01849e-05
1.25499e-09
5.01839e-05
1.75153e-09
5.01825e-05
2.45433e-09
5.01805e-05
3.45746e-09
5.01777e-05
4.90605e-09
5.01738e-05
7.03112e-09
5.01681e-05
1.02088e-08
5.01598e-05
1.50792e-08
5.01477e-05
2.27735e-08
5.01296e-05
3.53614e-08
5.01025e-05
5.68052e-08
5.00609e-05
9.52655e-08
4.99896e-05
1.70581e-07
4.99722e-05
3.47337e-07
5.00766e-05
7.53094e-07
6.73314e-07
5.20455e-05
1.04095e-05
5.19543e-05
1.22993e-05
5.06501e-05
8.15371e-06
4.93736e-05
4.58399e-06
4.84832e-05
2.14468e-06
4.80022e-05
5.66579e-07
4.78502e-05
-4.1531e-07
4.79314e-05
-9.96519e-07
4.81638e-05
-1.31263e-06
4.84853e-05
-1.45552e-06
4.88513e-05
-1.48705e-06
4.92316e-05
-1.44882e-06
4.96062e-05
-1.36882e-06
4.9963e-05
-1.26585e-06
5.02946e-05
-1.15246e-06
5.05977e-05
-1.03686e-06
5.08711e-05
-9.24284e-07
5.11153e-05
-8.17909e-07
5.13316e-05
-7.1951e-07
5.15221e-05
-6.29901e-07
5.1689e-05
-5.49252e-07
5.18346e-05
-4.77348e-07
5.19611e-05
-4.13718e-07
5.20708e-05
-3.57738e-07
5.21657e-05
-3.0872e-07
5.22476e-05
-2.65972e-07
5.23181e-05
-2.2882e-07
5.23788e-05
-1.96619e-07
5.24309e-05
-1.68772e-07
5.24757e-05
-1.44732e-07
5.25141e-05
-1.24013e-07
5.25469e-05
-1.06182e-07
5.25751e-05
-9.0859e-08
5.25992e-05
-7.77026e-08
5.26198e-05
-6.64142e-08
5.26374e-05
-5.67342e-08
5.26524e-05
-4.84402e-08
5.26652e-05
-4.13398e-08
5.26762e-05
-3.52651e-08
5.26855e-05
-3.00688e-08
5.26934e-05
-2.56246e-08
5.27002e-05
-2.18254e-08
5.2706e-05
-1.85802e-08
5.27109e-05
-1.581e-08
5.27151e-05
-1.34458e-08
5.27187e-05
-1.14284e-08
5.27217e-05
-9.70793e-09
5.27243e-05
-8.24218e-09
5.27264e-05
-6.99407e-09
5.27283e-05
-5.93071e-09
5.27298e-05
-5.02393e-09
5.27312e-05
-4.25081e-09
5.27323e-05
-3.59282e-09
5.27332e-05
-3.03424e-09
5.2734e-05
-2.56092e-09
5.27347e-05
-2.16015e-09
5.27353e-05
-1.82104e-09
5.27358e-05
-1.53443e-09
5.27362e-05
-1.29231e-09
5.27365e-05
-1.08726e-09
5.27368e-05
-9.12677e-10
5.2737e-05
-7.63416e-10
5.27372e-05
-6.36138e-10
5.27374e-05
-5.28836e-10
5.27376e-05
-4.39699e-10
5.27377e-05
-3.66129e-10
5.27378e-05
-3.0464e-10
5.27379e-05
-2.51725e-10
5.27379e-05
-2.04974e-10
5.2738e-05
-1.63431e-10
5.2738e-05
-1.26788e-10
5.2738e-05
-9.41128e-11
5.27381e-05
-6.32917e-11
5.27381e-05
-3.1565e-11
5.27381e-05
3.70053e-12
5.27381e-05
4.49801e-11
5.2738e-05
9.51878e-11
5.2738e-05
1.58209e-10
5.27379e-05
2.39408e-10
5.27378e-05
3.46561e-10
5.27376e-05
4.90813e-10
5.27374e-05
6.87344e-10
5.27371e-05
9.56953e-10
5.27367e-05
1.32926e-09
5.27361e-05
1.84654e-09
5.27353e-05
2.56899e-09
5.27341e-05
3.58346e-09
5.27326e-05
5.01582e-09
5.27304e-05
7.05251e-09
5.27275e-05
9.978e-09
5.27234e-05
1.42303e-08
5.2718e-05
2.04958e-08
5.27109e-05
2.98751e-08
5.27021e-05
4.41518e-08
5.26927e-05
6.62641e-08
5.26868e-05
1.01154e-07
5.27002e-05
1.57115e-07
5.28035e-05
2.44104e-07
5.32133e-05
3.43301e-07
2.78619e-07
5.19432e-05
8.46629e-06
5.30464e-05
1.1196e-05
5.29546e-05
8.24549e-06
5.23836e-05
5.15504e-06
5.1761e-05
2.76725e-06
5.12647e-05
1.06292e-06
5.09387e-05
-8.92849e-08
5.07691e-05
-8.26988e-07
5.07228e-05
-1.26635e-06
5.07647e-05
-1.49739e-06
5.08645e-05
-1.58687e-06
5.09988e-05
-1.5831e-06
5.11504e-05
-1.52038e-06
5.13072e-05
-1.42273e-06
5.14615e-05
-1.3067e-06
5.16081e-05
-1.18346e-06
5.17442e-05
-1.06037e-06
5.18684e-05
-9.42092e-07
5.19802e-05
-8.3137e-07
5.208e-05
-7.2965e-07
5.21682e-05
-6.37512e-07
5.22459e-05
-5.5496e-07
5.23138e-05
-4.81623e-07
5.23729e-05
-4.16906e-07
5.24243e-05
-3.60105e-07
5.24688e-05
-3.10475e-07
5.25072e-05
-2.67271e-07
5.25404e-05
-2.29775e-07
5.25689e-05
-1.97312e-07
5.25935e-05
-1.69265e-07
5.26145e-05
-1.45077e-07
5.26326e-05
-1.24253e-07
5.26481e-05
-1.06348e-07
5.26614e-05
-9.09665e-08
5.26727e-05
-7.77626e-08
5.26824e-05
-6.64383e-08
5.26907e-05
-5.6735e-08
5.26978e-05
-4.84263e-08
5.27038e-05
-4.13142e-08
5.2709e-05
-3.52285e-08
5.27134e-05
-3.00238e-08
5.27171e-05
-2.55756e-08
5.27203e-05
-2.17762e-08
5.27231e-05
-1.85318e-08
5.27254e-05
-1.57619e-08
5.27274e-05
-1.33986e-08
5.2729e-05
-1.13836e-08
5.27305e-05
-9.66648e-09
5.27317e-05
-8.20299e-09
5.27327e-05
-6.95507e-09
5.27336e-05
-5.89106e-09
5.27343e-05
-4.98492e-09
5.27349e-05
-4.21466e-09
5.27355e-05
-3.5609e-09
5.27359e-05
-3.0065e-09
5.27363e-05
-2.53663e-09
5.27366e-05
-2.1388e-09
5.27369e-05
-1.8023e-09
5.27371e-05
-1.51754e-09
5.27373e-05
-1.27587e-09
5.27374e-05
-1.07006e-09
5.27376e-05
-8.94715e-10
5.27377e-05
-7.46126e-10
5.27378e-05
-6.21464e-10
5.27379e-05
-5.1774e-10
5.27379e-05
-4.31298e-10
5.2738e-05
-3.58181e-10
5.2738e-05
-2.95068e-10
5.27381e-05
-2.39938e-10
5.27381e-05
-1.91768e-10
5.27381e-05
-1.49467e-10
5.27381e-05
-1.11039e-10
5.27381e-05
-7.37406e-11
5.27381e-05
-3.48226e-11
5.27381e-05
8.22483e-12
5.27381e-05
5.82414e-11
5.27381e-05
1.19016e-10
5.27381e-05
1.95479e-10
5.2738e-05
2.94136e-10
5.2738e-05
4.24244e-10
5.27378e-05
5.98982e-10
5.27377e-05
8.36281e-10
5.27375e-05
1.16093e-09
5.27372e-05
1.60843e-09
5.27368e-05
2.2282e-09
5.27363e-05
3.08781e-09
5.27356e-05
4.28243e-09
5.27347e-05
5.94708e-09
5.27335e-05
8.27317e-09
5.27319e-05
1.15377e-08
5.273e-05
1.61388e-08
5.27278e-05
2.26434e-08
5.27258e-05
3.18621e-08
5.27251e-05
4.49183e-08
5.2728e-05
6.32891e-08
5.27406e-05
8.86272e-08
5.27761e-05
1.21604e-07
5.28638e-05
1.56416e-07
5.30399e-05
1.67187e-07
1.21183e-07
5.17108e-05
6.75547e-06
5.33436e-05
9.56322e-06
5.40474e-05
7.54175e-06
5.41258e-05
5.07659e-06
5.39065e-05
2.98659e-06
5.35927e-05
1.37667e-06
5.3288e-05
2.15489e-07
5.30347e-05
-5.7371e-07
5.28431e-05
-1.07472e-06
5.27082e-05
-1.36257e-06
5.26199e-05
-1.49854e-06
5.2567e-05
-1.53021e-06
5.25398e-05
-1.49315e-06
5.25303e-05
-1.41327e-06
5.25326e-05
-1.30898e-06
5.25423e-05
-1.19309e-06
5.25561e-05
-1.07424e-06
5.25721e-05
-9.58037e-07
5.25887e-05
-8.47955e-07
5.2605e-05
-7.45966e-07
5.26205e-05
-6.53005e-07
5.26348e-05
-5.69313e-07
5.26479e-05
-4.94682e-07
5.26596e-05
-4.28635e-07
5.26701e-05
-3.70538e-07
5.26793e-05
-3.19687e-07
5.26874e-05
-2.75357e-07
5.26944e-05
-2.36838e-07
5.27006e-05
-2.03455e-07
5.27059e-05
-1.7459e-07
5.27105e-05
-1.49685e-07
5.27145e-05
-1.28231e-07
5.27179e-05
-1.09772e-07
5.27209e-05
-9.39076e-08
5.27234e-05
-8.02875e-08
5.27256e-05
-6.86064e-08
5.27274e-05
-5.85957e-08
5.2729e-05
-5.00203e-08
5.27304e-05
-4.26776e-08
5.27315e-05
-3.6394e-08
5.27325e-05
-3.10208e-08
5.27334e-05
-2.64284e-08
5.27341e-05
-2.25047e-08
5.27347e-05
-1.91532e-08
5.27353e-05
-1.62919e-08
5.27357e-05
-1.38508e-08
5.27361e-05
-1.17692e-08
5.27364e-05
-9.99426e-09
5.27367e-05
-8.48049e-09
5.27369e-05
-7.18977e-09
5.27372e-05
-6.09023e-09
5.27373e-05
-5.15482e-09
5.27375e-05
-4.35992e-09
5.27376e-05
-3.68478e-09
5.27377e-05
-3.11157e-09
5.27378e-05
-2.62532e-09
5.27379e-05
-2.21342e-09
5.27379e-05
-1.86481e-09
5.2738e-05
-1.56956e-09
5.2738e-05
-1.31893e-09
5.27381e-05
-1.10581e-09
5.27381e-05
-9.24838e-10
5.27381e-05
-7.71977e-10
5.27381e-05
-6.43756e-10
5.27382e-05
-5.36588e-10
5.27382e-05
-4.46636e-10
5.27382e-05
-3.70274e-10
5.27382e-05
-3.04702e-10
5.27382e-05
-2.4808e-10
5.27382e-05
-1.98936e-10
5.27382e-05
-1.5538e-10
5.27382e-05
-1.14943e-10
5.27382e-05
-7.50664e-11
5.27382e-05
-3.34158e-11
5.27382e-05
1.25312e-11
5.27382e-05
6.60891e-11
5.27382e-05
1.31453e-10
5.27382e-05
2.13644e-10
5.27382e-05
3.19187e-10
5.27381e-05
4.57578e-10
5.27381e-05
6.42769e-10
5.2738e-05
8.9433e-10
5.2738e-05
1.23896e-09
5.27378e-05
1.71311e-09
5.27377e-05
2.36602e-09
5.27375e-05
3.26382e-09
5.27373e-05
4.49798e-09
5.27371e-05
6.19533e-09
5.27368e-05
8.52707e-09
5.27366e-05
1.17243e-08
5.27367e-05
1.60941e-08
5.27373e-05
2.20292e-08
5.27391e-05
3.00084e-08
5.27435e-05
4.05516e-08
5.27527e-05
5.40486e-08
5.27711e-05
7.02826e-08
5.28055e-05
8.71715e-08
5.28643e-05
9.76119e-08
5.29444e-05
8.70787e-08
5.70025e-08
5.15253e-05
5.23021e-06
5.33704e-05
7.71805e-06
5.45447e-05
6.36749e-06
5.51091e-05
4.51221e-06
5.52693e-05
2.8264e-06
5.51961e-05
1.44978e-06
5.50057e-05
4.05984e-07
5.47684e-05
-3.36469e-07
5.45239e-05
-8.30196e-07
5.42921e-05
-1.13078e-06
5.40818e-05
-1.28824e-06
5.38956e-05
-1.34399e-06
5.37329e-05
-1.33051e-06
5.3592e-05
-1.27234e-06
5.34705e-05
-1.18741e-06
5.33658e-05
-1.08848e-06
5.32759e-05
-9.84336e-07
5.31987e-05
-8.8084e-07
5.31325e-05
-7.81704e-07
5.30756e-05
-6.89128e-07
5.30269e-05
-6.04262e-07
5.29851e-05
-5.27526e-07
5.29493e-05
-4.58869e-07
5.29186e-05
-3.97949e-07
5.28923e-05
-3.44255e-07
5.28698e-05
-2.97184e-07
5.28506e-05
-2.56097e-07
5.28341e-05
-2.20357e-07
5.282e-05
-1.89359e-07
5.2808e-05
-1.62544e-07
5.27977e-05
-1.39395e-07
5.27889e-05
-1.19441e-07
5.27814e-05
-1.02263e-07
5.2775e-05
-8.74954e-08
5.27695e-05
-7.4815e-08
5.27648e-05
-6.39376e-08
5.27608e-05
-5.46127e-08
5.27574e-05
-4.66226e-08
5.27545e-05
-3.9781e-08
5.27521e-05
-3.39273e-08
5.275e-05
-2.89217e-08
5.27482e-05
-2.46426e-08
5.27467e-05
-2.09854e-08
5.27454e-05
-1.78613e-08
5.27443e-05
-1.51944e-08
5.27433e-05
-1.29189e-08
5.27426e-05
-1.09776e-08
5.27419e-05
-9.32132e-09
5.27413e-05
-7.90878e-09
5.27408e-05
-6.70525e-09
5.27404e-05
-5.68102e-09
5.27401e-05
-4.8101e-09
5.27398e-05
-4.0696e-09
5.27395e-05
-3.4399e-09
5.27393e-05
-2.90465e-09
5.27392e-05
-2.45031e-09
5.2739e-05
-2.06535e-09
5.27389e-05
-1.73951e-09
5.27388e-05
-1.46357e-09
5.27387e-05
-1.22957e-09
5.27386e-05
-1.03097e-09
5.27386e-05
-8.6263e-10
5.27385e-05
-7.20463e-10
5.27385e-05
-6.00919e-10
5.27384e-05
-5.00617e-10
5.27384e-05
-4.16265e-10
5.27384e-05
-3.44888e-10
5.27384e-05
-2.84081e-10
5.27383e-05
-2.31899e-10
5.27383e-05
-1.86431e-10
5.27383e-05
-1.45521e-10
5.27383e-05
-1.06973e-10
5.27383e-05
-6.87827e-11
5.27383e-05
-2.88418e-11
5.27383e-05
1.55893e-11
5.27383e-05
6.78091e-11
5.27383e-05
1.31264e-10
5.27383e-05
2.10016e-10
5.27383e-05
3.10218e-10
5.27383e-05
4.41433e-10
5.27384e-05
6.17566e-10
5.27384e-05
8.57805e-10
5.27384e-05
1.18719e-09
5.27385e-05
1.6381e-09
5.27386e-05
2.25434e-09
5.27388e-05
3.0953e-09
5.27391e-05
4.24062e-09
5.27395e-05
5.79727e-09
5.27401e-05
7.90216e-09
5.27411e-05
1.07248e-08
5.27427e-05
1.44749e-08
5.27453e-05
1.93872e-08
5.27497e-05
2.56815e-08
5.27567e-05
3.34804e-08
5.27682e-05
4.26011e-08
5.27863e-05
5.21518e-08
5.28137e-05
5.97913e-08
5.28507e-05
6.05556e-08
5.28899e-05
4.78956e-08
2.89196e-08
5.13984e-05
3.83178e-06
5.33164e-05
5.80008e-06
5.47557e-05
4.92816e-06
5.5651e-05
3.61698e-06
5.61127e-05
2.36464e-06
5.62655e-05
1.29697e-06
5.62148e-05
4.56669e-07
5.60399e-05
-1.61546e-07
5.57964e-05
-5.86656e-07
5.55214e-05
-8.55821e-07
5.52389e-05
-1.00576e-06
5.49636e-05
-1.06868e-06
5.4704e-05
-1.07091e-06
5.44646e-05
-1.03293e-06
5.42473e-05
-9.70102e-07
5.40523e-05
-8.9352e-07
5.3879e-05
-8.10976e-07
5.37259e-05
-7.27752e-07
5.35914e-05
-6.47266e-07
5.34739e-05
-5.71604e-07
5.33716e-05
-5.01903e-07
5.32827e-05
-4.38648e-07
5.32057e-05
-3.81896e-07
5.31392e-05
-3.31436e-07
5.30818e-05
-2.8689e-07
5.30324e-05
-2.47785e-07
5.29899e-05
-2.1361e-07
5.29535e-05
-1.83856e-07
5.29221e-05
-1.58034e-07
5.28953e-05
-1.35685e-07
5.28723e-05
-1.16381e-07
5.28526e-05
-9.97358e-08
5.28357e-05
-8.54033e-08
5.28213e-05
-7.30807e-08
5.2809e-05
-6.24984e-08
5.27985e-05
-5.34177e-08
5.27895e-05
-4.563e-08
5.27818e-05
-3.8956e-08
5.27753e-05
-3.32418e-08
5.27697e-05
-2.83529e-08
5.27649e-05
-2.41714e-08
5.27609e-05
-2.05959e-08
5.27574e-05
-1.75398e-08
5.27545e-05
-1.49296e-08
5.2752e-05
-1.27014e-08
5.27499e-05
-1.07994e-08
5.27481e-05
-9.17593e-09
5.27466e-05
-7.79062e-09
5.27453e-05
-6.60985e-09
5.27442e-05
-5.60484e-09
5.27433e-05
-4.75017e-09
5.27425e-05
-4.02324e-09
5.27418e-05
-3.40448e-09
5.27412e-05
-2.87758e-09
5.27408e-05
-2.42929e-09
5.27404e-05
-2.04863e-09
5.274e-05
-1.72613e-09
5.27397e-05
-1.45329e-09
5.27395e-05
-1.2225e-09
5.27393e-05
-1.02708e-09
5.27391e-05
-8.6139e-10
5.2739e-05
-7.20852e-10
5.27389e-05
-6.01881e-10
5.27388e-05
-5.01603e-10
5.27387e-05
-4.17479e-10
5.27386e-05
-3.47017e-10
5.27385e-05
-2.87784e-10
5.27385e-05
-2.37571e-10
5.27385e-05
-1.94412e-10
5.27384e-05
-1.56458e-10
5.27384e-05
-1.21928e-10
5.27384e-05
-8.91593e-11
5.27384e-05
-5.64523e-11
5.27384e-05
-2.17075e-11
5.27384e-05
1.75042e-11
5.27384e-05
6.33113e-11
5.27384e-05
1.17544e-10
5.27384e-05
1.83314e-10
5.27385e-05
2.66844e-10
5.27385e-05
3.77642e-10
5.27386e-05
5.27909e-10
5.27387e-05
7.33177e-10
5.27389e-05
1.01339e-09
5.27392e-05
1.39452e-09
5.27395e-05
1.91274e-09
5.274e-05
2.61689e-09
5.27406e-05
3.56864e-09
5.27416e-05
4.84776e-09
5.27429e-05
6.55261e-09
5.27449e-05
8.79636e-09
5.27476e-05
1.17084e-08
5.27516e-05
1.54083e-08
5.27573e-05
1.99588e-08
5.27655e-05
2.52841e-08
5.27771e-05
3.10164e-08
5.2793e-05
3.62492e-08
5.28136e-05
3.92143e-08
5.28371e-05
3.70279e-08
5.2858e-05
2.70759e-08
1.54378e-08
5.13169e-05
2.51482e-06
5.32521e-05
3.8649e-06
5.48354e-05
3.3449e-06
5.5941e-05
2.51131e-06
5.66176e-05
1.6881e-06
5.69493e-05
9.65217e-07
5.70246e-05
3.81379e-07
5.69214e-05
-5.83128e-08
5.67024e-05
-3.67637e-07
5.64152e-05
-5.68584e-07
5.60942e-05
-6.8477e-07
5.57634e-05
-7.37897e-07
5.54388e-05
-7.46284e-07
5.51303e-05
-7.24504e-07
5.48439e-05
-6.83672e-07
5.45823e-05
-6.31948e-07
5.43465e-05
-5.75131e-07
5.4136e-05
-5.17199e-07
5.39495e-05
-4.60764e-07
5.37853e-05
-4.07436e-07
5.36415e-05
-3.5812e-07
5.35161e-05
-3.13239e-07
5.34071e-05
-2.7289e-07
5.33126e-05
-2.3696e-07
5.3231e-05
-2.05201e-07
5.31605e-05
-1.77294e-07
5.30998e-05
-1.52887e-07
5.30475e-05
-1.31625e-07
5.30027e-05
-1.13166e-07
5.29641e-05
-9.71793e-08
5.29311e-05
-8.33636e-08
5.29028e-05
-7.14459e-08
5.28786e-05
-6.11836e-08
5.28579e-05
-5.23605e-08
5.28402e-05
-4.47823e-08
5.2825e-05
-3.82778e-08
5.28121e-05
-3.26988e-08
5.28011e-05
-2.79181e-08
5.27917e-05
-2.38251e-08
5.27836e-05
-2.03225e-08
5.27768e-05
-1.73257e-08
5.27709e-05
-1.47627e-08
5.2766e-05
-1.25724e-08
5.27617e-05
-1.0702e-08
5.27582e-05
-9.10483e-09
5.27551e-05
-7.74077e-09
5.27525e-05
-6.57597e-09
5.27503e-05
-5.58247e-09
5.27484e-05
-4.73663e-09
5.27468e-05
-4.01749e-09
5.27455e-05
-3.40609e-09
5.27444e-05
-2.88561e-09
5.27434e-05
-2.4419e-09
5.27426e-05
-2.06351e-09
5.27419e-05
-1.74128e-09
5.27413e-05
-1.46763e-09
5.27408e-05
-1.23595e-09
5.27404e-05
-1.04026e-09
5.274e-05
-8.75069e-10
5.27397e-05
-7.3533e-10
5.27395e-05
-6.16654e-10
5.27393e-05
-5.15598e-10
5.27391e-05
-4.29782e-10
5.2739e-05
-3.57558e-10
5.27389e-05
-2.97385e-10
5.27388e-05
-2.47416e-10
5.27387e-05
-2.05611e-10
5.27386e-05
-1.70118e-10
5.27386e-05
-1.39456e-10
5.27385e-05
-1.12357e-10
5.27385e-05
-8.75511e-11
5.27385e-05
-6.36284e-11
5.27384e-05
-3.9e-11
5.27384e-05
-1.2125e-11
5.27384e-05
1.79771e-11
5.27385e-05
5.1668e-11
5.27385e-05
8.98443e-11
5.27385e-05
1.35641e-10
5.27386e-05
1.94982e-10
5.27387e-05
2.75413e-10
5.27388e-05
3.85023e-10
5.2739e-05
5.33686e-10
5.27393e-05
7.35582e-10
5.27397e-05
1.01035e-09
5.27402e-05
1.38399e-09
5.27409e-05
1.88971e-09
5.27419e-05
2.56795e-09
5.27433e-05
3.46999e-09
5.27452e-05
4.65933e-09
5.27478e-05
6.20636e-09
5.27513e-05
8.17847e-09
5.27561e-05
1.06243e-08
5.27626e-05
1.3538e-08
5.2771e-05
1.67962e-08
5.2782e-05
2.00722e-08
5.27955e-05
2.27076e-08
5.28111e-05
2.36101e-08
5.28269e-05
2.12921e-08
5.28391e-05
1.4828e-08
8.15329e-09
5.12687e-05
1.24617e-06
5.32028e-05
1.93074e-06
5.48598e-05
1.68791e-06
5.60876e-05
1.28351e-06
5.68993e-05
8.76421e-07
5.73518e-05
5.1273e-07
5.75186e-05
2.14484e-07
5.74736e-05
-1.32305e-08
5.72815e-05
-1.75575e-07
5.69955e-05
-2.82597e-07
5.66565e-05
-3.45743e-07
5.62944e-05
-3.75871e-07
5.59305e-05
-3.82332e-07
5.55787e-05
-3.72675e-07
5.52477e-05
-3.52706e-07
5.49425e-05
-3.2674e-07
5.46652e-05
-2.97866e-07
5.44162e-05
-2.68212e-07
5.41947e-05
-2.39188e-07
5.39989e-05
-2.11672e-07
5.38269e-05
-1.86167e-07
5.36766e-05
-1.62919e-07
5.35457e-05
-1.41994e-07
5.34321e-05
-1.23339e-07
5.33337e-05
-1.06833e-07
5.32488e-05
-9.23183e-08
5.31755e-05
-7.96201e-08
5.31125e-05
-6.85579e-08
5.30582e-05
-5.8952e-08
5.30117e-05
-5.06309e-08
5.29718e-05
-4.34374e-08
5.29376e-05
-3.7231e-08
5.29083e-05
-3.18862e-08
5.28832e-05
-2.729e-08
5.28617e-05
-2.33409e-08
5.28434e-05
-1.99503e-08
5.28278e-05
-1.70425e-08
5.28144e-05
-1.45515e-08
5.2803e-05
-1.24191e-08
5.27933e-05
-1.05936e-08
5.2785e-05
-9.0312e-09
5.27779e-05
-7.69493e-09
5.27719e-05
-6.5533e-09
5.27668e-05
-5.57832e-09
5.27624e-05
-4.74522e-09
5.27587e-05
-4.03302e-09
5.27555e-05
-3.42479e-09
5.27529e-05
-2.9067e-09
5.27506e-05
-2.46657e-09
5.27487e-05
-2.09301e-09
5.2747e-05
-1.77542e-09
5.27457e-05
-1.50459e-09
5.27445e-05
-1.27306e-09
5.27435e-05
-1.0751e-09
5.27427e-05
-9.06244e-10
5.2742e-05
-7.6286e-10
5.27414e-05
-6.41785e-10
5.27409e-05
-5.39981e-10
5.27404e-05
-4.54332e-10
5.27401e-05
-3.81735e-10
5.27398e-05
-3.1955e-10
5.27395e-05
-2.66108e-10
5.27393e-05
-2.20712e-10
5.27391e-05
-1.83002e-10
5.2739e-05
-1.52189e-10
5.27389e-05
-1.26904e-10
5.27388e-05
-1.05721e-10
5.27387e-05
-8.7669e-11
5.27386e-05
-7.21439e-11
5.27386e-05
-5.8428e-11
5.27385e-05
-4.54439e-11
5.27385e-05
-3.19793e-11
5.27385e-05
-1.71919e-11
5.27385e-05
-1.09814e-12
5.27385e-05
1.55095e-11
5.27385e-05
3.22304e-11
5.27385e-05
5.04627e-11
5.27386e-05
7.32829e-11
5.27387e-05
1.04071e-10
5.27388e-05
1.45996e-10
5.2739e-05
2.02645e-10
5.27392e-05
2.79196e-10
5.27396e-05
3.84199e-10
5.27401e-05
5.29019e-10
5.27407e-05
7.25454e-10
5.27416e-05
9.88641e-10
5.27429e-05
1.34007e-09
5.27445e-05
1.80495e-09
5.27468e-05
2.41498e-09
5.27498e-05
3.20343e-09
5.27538e-05
4.19445e-09
5.2759e-05
5.40295e-09
5.27657e-05
6.81521e-09
5.27742e-05
8.35283e-09
5.27844e-05
9.82845e-09
5.27962e-05
1.09051e-08
5.28087e-05
1.10798e-08
5.28203e-05
9.73936e-09
5.28285e-05
6.6073e-09
3.56076e-09
5.12462e-05
-2.07283e-11
5.31769e-05
-1.94536e-11
5.48649e-05
-1.34517e-11
5.61484e-05
-1.95077e-11
5.70248e-05
-2.93892e-11
5.75376e-05
-1.75595e-11
5.77521e-05
-5.90207e-12
5.77388e-05
-6.4056e-13
5.75633e-05
3.24418e-13
5.72807e-05
-4.78941e-12
5.69349e-05
-7.08864e-12
5.6559e-05
-3.44714e-13
5.61767e-05
6.46447e-12
5.5804e-05
1.04427e-11
5.54513e-05
1.53942e-11
5.51245e-05
1.49826e-11
5.48266e-05
1.24875e-11
5.45584e-05
1.36416e-11
5.43192e-05
1.76277e-11
5.41075e-05
2.18443e-11
5.39213e-05
2.36904e-11
5.37584e-05
2.21045e-11
5.36164e-05
1.93447e-11
5.3493e-05
1.82204e-11
5.33861e-05
1.90439e-11
5.32938e-05
2.02827e-11
5.32142e-05
2.04525e-11
5.31456e-05
1.91062e-11
5.30866e-05
1.69552e-11
5.3036e-05
1.49906e-11
5.29925e-05
1.32586e-11
5.29553e-05
1.10156e-11
5.29234e-05
8.20256e-12
5.28961e-05
5.96676e-12
5.28728e-05
5.27176e-12
5.28528e-05
5.572e-12
5.28358e-05
5.46931e-12
5.28212e-05
4.42165e-12
5.28088e-05
3.22046e-12
5.27982e-05
2.79608e-12
5.27891e-05
3.08148e-12
5.27815e-05
3.31865e-12
5.27749e-05
3.18873e-12
5.27693e-05
3.23973e-12
5.27646e-05
4.15507e-12
5.27605e-05
5.8273e-12
5.27571e-05
7.29664e-12
5.27542e-05
7.55178e-12
5.27517e-05
6.33706e-12
5.27496e-05
4.27194e-12
5.27478e-05
2.34269e-12
5.27463e-05
1.30506e-12
5.27451e-05
1.40252e-12
5.2744e-05
2.40345e-12
5.27431e-05
3.76364e-12
5.27423e-05
4.825e-12
5.27416e-05
5.09634e-12
5.27411e-05
4.57506e-12
5.27406e-05
3.85013e-12
5.27402e-05
3.7352e-12
5.27399e-05
4.58841e-12
5.27396e-05
5.92124e-12
5.27394e-05
6.77549e-12
5.27392e-05
6.58211e-12
5.27391e-05
5.61178e-12
5.27389e-05
4.52494e-12
5.27388e-05
3.59901e-12
5.27387e-05
2.61742e-12
5.27387e-05
1.52525e-12
5.27386e-05
9.16378e-13
5.27386e-05
1.63573e-12
5.27385e-05
3.91303e-12
5.27385e-05
6.92796e-12
5.27385e-05
9.17449e-12
5.27385e-05
9.44923e-12
5.27385e-05
7.90741e-12
5.27386e-05
5.97363e-12
5.27386e-05
4.54477e-12
5.27387e-05
2.82641e-12
5.27389e-05
1.45548e-13
5.27391e-05
-2.42944e-12
5.27393e-05
-3.80726e-12
5.27397e-05
-3.76274e-12
5.27403e-05
-2.57922e-12
5.2741e-05
-2.52238e-12
5.2742e-05
-3.95509e-12
5.27433e-05
-3.66307e-12
5.27451e-05
-3.52505e-12
5.27476e-05
-4.49384e-12
5.27508e-05
-4.72441e-12
5.2755e-05
-4.68537e-12
5.27604e-05
-2.83496e-12
5.27672e-05
-1.11991e-12
5.27756e-05
-1.06308e-12
5.27854e-05
-1.79578e-12
5.27963e-05
-1.38923e-12
5.28074e-05
-9.02102e-14
5.28171e-05
1.95336e-12
5.28237e-05
1.4168e-13
-2.87757e-12
5.12462e-05
-1.24619e-06
5.31769e-05
-1.93078e-06
5.48649e-05
-1.68796e-06
5.61484e-05
-1.28354e-06
5.70248e-05
-8.76436e-07
5.75376e-05
-5.12742e-07
5.77521e-05
-2.14501e-07
5.77388e-05
1.32159e-08
5.75632e-05
1.75568e-07
5.72807e-05
2.82603e-07
5.69349e-05
3.45753e-07
5.6559e-05
3.75891e-07
5.61767e-05
3.82358e-07
5.5804e-05
3.72701e-07
5.54513e-05
3.52736e-07
5.51245e-05
3.26776e-07
5.48266e-05
2.97905e-07
5.45584e-05
2.68254e-07
5.43192e-05
2.3923e-07
5.41075e-05
2.11713e-07
5.39213e-05
1.8621e-07
5.37584e-05
1.62962e-07
5.36164e-05
1.42036e-07
5.3493e-05
1.23381e-07
5.33861e-05
1.06876e-07
5.32938e-05
9.2361e-08
5.32142e-05
7.96606e-08
5.31456e-05
6.8593e-08
5.30866e-05
5.89807e-08
5.3036e-05
5.06547e-08
5.29925e-05
4.34587e-08
5.29553e-05
3.72503e-08
5.29234e-05
3.19026e-08
5.28961e-05
2.73034e-08
5.28728e-05
2.33529e-08
5.28528e-05
1.99623e-08
5.28358e-05
1.70537e-08
5.28212e-05
1.45604e-08
5.28088e-05
1.24254e-08
5.27982e-05
1.05988e-08
5.27891e-05
9.03671e-09
5.27815e-05
7.70106e-09
5.27749e-05
6.55943e-09
5.27693e-05
5.58458e-09
5.27646e-05
4.75296e-09
5.27605e-05
4.04368e-09
5.27571e-05
3.43829e-09
5.27542e-05
2.92106e-09
5.27517e-05
2.4791e-09
5.27496e-05
2.10189e-09
5.27478e-05
1.78062e-09
5.27463e-05
1.50763e-09
5.27451e-05
1.2761e-09
5.2744e-05
1.07989e-09
5.27431e-05
9.13489e-10
5.27423e-05
7.71997e-10
5.27416e-05
6.51413e-10
5.27411e-05
5.48796e-10
5.27406e-05
4.62081e-10
5.27402e-05
3.89452e-10
5.27399e-05
3.28736e-10
5.27396e-05
2.77427e-10
5.27394e-05
2.33394e-10
5.27392e-05
1.95488e-10
5.27391e-05
1.63284e-10
5.27389e-05
1.36209e-10
5.27388e-05
1.13144e-10
5.27387e-05
9.30595e-11
5.27387e-05
7.57724e-11
5.27386e-05
6.16357e-11
5.27386e-05
5.03567e-11
5.27385e-05
4.03788e-11
5.27385e-05
2.96224e-11
5.27385e-05
1.67431e-11
5.27385e-05
1.50919e-12
5.27385e-05
-1.60755e-11
5.27386e-05
-3.69996e-11
5.27386e-05
-6.3693e-11
5.27387e-05
-9.92383e-11
5.27389e-05
-1.45964e-10
5.27391e-05
-2.05892e-10
5.27393e-05
-2.84236e-10
5.27397e-05
-3.9052e-10
5.27403e-05
-5.35296e-10
5.2741e-05
-7.30836e-10
5.2742e-05
-9.93631e-10
5.27433e-05
-1.34487e-09
5.27451e-05
-1.81141e-09
5.27476e-05
-2.42348e-09
5.27508e-05
-3.20965e-09
5.2755e-05
-4.19836e-09
5.27604e-05
-5.40834e-09
5.27672e-05
-6.82331e-09
5.27756e-05
-8.35998e-09
5.27854e-05
-9.83179e-09
5.27963e-05
-1.09062e-08
5.28074e-05
-1.1084e-08
5.28171e-05
-9.74511e-09
5.28237e-05
-6.60813e-09
-3.5572e-09
5.12687e-05
-2.51485e-06
5.32028e-05
-3.86494e-06
5.48598e-05
-3.34494e-06
5.60876e-05
-2.51135e-06
5.68993e-05
-1.68812e-06
5.73517e-05
-9.65236e-07
5.75186e-05
-3.81389e-07
5.74735e-05
5.83104e-08
5.72815e-05
3.67645e-07
5.69955e-05
5.68603e-07
5.66565e-05
6.8479e-07
5.62944e-05
7.37918e-07
5.59305e-05
7.46305e-07
5.55787e-05
7.24528e-07
5.52477e-05
6.83695e-07
5.49425e-05
6.31975e-07
5.46652e-05
5.75165e-07
5.44162e-05
5.17237e-07
5.41947e-05
4.60799e-07
5.39989e-05
4.07468e-07
5.38269e-05
3.58153e-07
5.36766e-05
3.13277e-07
5.35457e-05
2.72934e-07
5.34321e-05
2.37004e-07
5.33337e-05
2.05241e-07
5.32488e-05
1.77329e-07
5.31755e-05
1.52919e-07
5.31125e-05
1.31655e-07
5.30582e-05
1.13191e-07
5.30117e-05
9.72011e-08
5.29718e-05
8.3384e-08
5.29376e-05
7.14667e-08
5.29083e-05
6.12043e-08
5.28832e-05
5.23792e-08
5.28617e-05
4.47982e-08
5.28434e-05
3.82912e-08
5.28278e-05
3.27101e-08
5.28144e-05
2.79272e-08
5.2803e-05
2.38318e-08
5.27933e-05
2.03278e-08
5.2785e-05
1.73308e-08
5.27779e-05
1.47683e-08
5.27719e-05
1.25784e-08
5.27668e-05
1.0708e-08
5.27624e-05
9.11154e-09
5.27587e-05
7.74927e-09
5.27556e-05
6.5868e-09
5.27529e-05
5.59481e-09
5.27506e-05
4.74856e-09
5.27487e-05
4.02715e-09
5.2747e-05
3.41276e-09
5.27457e-05
2.89007e-09
5.27445e-05
2.44584e-09
5.27435e-05
2.06849e-09
5.27427e-05
1.74793e-09
5.2742e-05
1.47554e-09
5.27414e-05
1.24421e-09
5.27409e-05
1.04822e-09
5.27404e-05
8.82767e-10
5.27401e-05
7.43364e-10
5.27398e-05
6.25588e-10
5.27395e-05
5.25537e-10
5.27393e-05
4.40398e-10
5.27391e-05
3.6838e-10
5.2739e-05
3.079e-10
5.27389e-05
2.56965e-10
5.27388e-05
2.13573e-10
5.27387e-05
1.76555e-10
5.27386e-05
1.45468e-10
5.27386e-05
1.19383e-10
5.27385e-05
9.61015e-11
5.27385e-05
7.29978e-11
5.27385e-05
4.85179e-11
5.27385e-05
2.24748e-11
5.27385e-05
-5.38318e-12
5.27385e-05
-3.71227e-11
5.27385e-05
-7.65416e-11
5.27386e-05
-1.27159e-10
5.27387e-05
-1.91822e-10
5.27388e-05
-2.75424e-10
5.2739e-05
-3.8627e-10
5.27392e-05
-5.35612e-10
5.27396e-05
-7.39106e-10
5.27401e-05
-1.01623e-09
5.27407e-05
-1.39031e-09
5.27416e-05
-1.89554e-09
5.27429e-05
-2.57503e-09
5.27445e-05
-3.47697e-09
5.27468e-05
-4.6646e-09
5.27498e-05
-6.21137e-09
5.27538e-05
-8.18635e-09
5.2759e-05
-1.06326e-08
5.27657e-05
-1.35418e-08
5.27742e-05
-1.67981e-08
5.27844e-05
-2.00786e-08
5.27962e-05
-2.27162e-08
5.28087e-05
-2.36145e-08
5.28203e-05