/*--------------------------------*- C++ -*----------------------------------*\
| =========                 |                                                 |
| \\      /  F ield         | OpenFOAM: The Open Source CFD Toolbox           |
|  \\    /   O peration     | Version:  2212                                  |
|   \\  /    A nd           | Website:  www.openfoam.com                      |
|    \\/     M anipulation  |                                                 |
\*---------------------------------------------------------------------------*/
FoamFile
{
    version     2.0;
    format      ascii;
    arch        "LSB;label=32;scalar=64";
    class       volVectorField;
    location    "10";
    object      U;
}
// * * * * * * * * * * * * * * * * * * * * * * * * * * * * * * * * * * * * * //

dimensions      [0 1 -1 0 0 0 0];

internalField   nonuniform List<vector> 
2000
(
(0.770794 0.138411 0)
(0.598624 0.094067 0)
(0.510019 0.0374465 0)
(0.456878 0.0129607 0)
(0.43853 0.00221467 0)
(0.435504 -0.00259231 0)
(0.439957 -0.00472923 0)
(0.447936 -0.00559062 0)
(0.457434 -0.00580467 0)
(0.467369 -0.00567589 0)
(0.477138 -0.00536404 0)
(0.486406 -0.00495926 0)
(0.494995 -0.00451487 0)
(0.502828 -0.00406336 0)
(0.509883 -0.00362462 0)
(0.516179 -0.00321041 0)
(0.521756 -0.00282714 0)
(0.526667 -0.00247778 0)
(0.530971 -0.00216302 0)
(0.534726 -0.00188196 0)
(0.537993 -0.00163277 0)
(0.540826 -0.00141319 0)
(0.543278 -0.00122067 0)
(0.545394 -0.00105255 0)
(0.547219 -0.000906232 0)
(0.54879 -0.000779251 0)
(0.55014 -0.000669296 0)
(0.5513 -0.00057429 0)
(0.552294 -0.000492381 0)
(0.553147 -0.000421867 0)
(0.553877 -0.000361204 0)
(0.554502 -0.000309051 0)
(0.555037 -0.000264263 0)
(0.555494 -0.000225847 0)
(0.555885 -0.00019293 0)
(0.556218 -0.000164745 0)
(0.556503 -0.000140615 0)
(0.556746 -0.000119959 0)
(0.556954 -0.000102287 0)
(0.55713 -8.71884e-05 0)
(0.557281 -7.42932e-05 0)
(0.557409 -6.32706e-05 0)
(0.557519 -5.38419e-05 0)
(0.557611 -4.5787e-05 0)
(0.557691 -3.89229e-05 0)
(0.557758 -3.30791e-05 0)
(0.557815 -2.80957e-05 0)
(0.557863 -2.38393e-05 0)
(0.557904 -2.02092e-05 0)
(0.557939 -1.71246e-05 0)
(0.557969 -1.45086e-05 0)
(0.557994 -1.22858e-05 0)
(0.558015 -1.03909e-05 0)
(0.558033 -8.77492e-06 0)
(0.558048 -7.40039e-06 0)
(0.558061 -6.23381e-06 0)
(0.558072 -5.24389e-06 0)
(0.558081 -4.40531e-06 0)
(0.558088 -3.70024e-06 0)
(0.558095 -3.11365e-06 0)
(0.5581 -2.62659e-06 0)
(0.558104 -2.21528e-06 0)
(0.558108 -1.85768e-06 0)
(0.558111 -1.54179e-06 0)
(0.558114 -1.26748e-06 0)
(0.558116 -1.03987e-06 0)
(0.558118 -8.59256e-07 0)
(0.55812 -7.15718e-07 0)
(0.558121 -5.92881e-07 0)
(0.558122 -4.77465e-07 0)
(0.558123 -3.66203e-07 0)
(0.558123 -2.63781e-07 0)
(0.558124 -1.73856e-07 0)
(0.558124 -9.18834e-08 0)
(0.558124 -5.95346e-09 0)
(0.558124 9.73035e-08 0)
(0.558123 2.29349e-07 0)
(0.558123 4.01245e-07 0)
(0.558122 6.25969e-07 0)
(0.55812 9.20091e-07 0)
(0.558118 1.3092e-06 0)
(0.558114 1.83686e-06 0)
(0.55811 2.56792e-06 0)
(0.558103 3.58664e-06 0)
(0.558094 5.00821e-06 0)
(0.558081 7.00843e-06 0)
(0.558064 9.8541e-06 0)
(0.558038 1.39511e-05 0)
(0.558003 1.99509e-05 0)
(0.557951 2.89284e-05 0)
(0.557877 4.27324e-05 0)
(0.557766 6.47844e-05 0)
(0.557595 0.000101815 0)
(0.557325 0.000167921 0)
(0.556876 0.000294372 0)
(0.556096 0.000552143 0)
(0.556941 0.00109404 0)
(0.547218 0.00360844 0)
(0.550117 0.00880062 0)
(0.510825 0.00758442 0)
(1.07892 0.271501 0)
(0.960678 0.230491 0)
(0.915538 0.113847 0)
(0.87275 0.0491588 0)
(0.848123 0.015658 0)
(0.839379 -0.00174047 0)
(0.840955 -0.0107227 0)
(0.848605 -0.0151367 0)
(0.859573 -0.0169814 0)
(0.872099 -0.0173458 0)
(0.885075 -0.0168535 0)
(0.897813 -0.0158781 0)
(0.909906 -0.0146505 0)
(0.921127 -0.0133163 0)
(0.931367 -0.0119674 0)
(0.940598 -0.0106609 0)
(0.94884 -0.00943052 0)
(0.956143 -0.00829467 0)
(0.962574 -0.00726158 0)
(0.96821 -0.00633261 0)
(0.973129 -0.00550456 0)
(0.977407 -0.00477171 0)
(0.981117 -0.00412689 0)
(0.984326 -0.00356223 0)
(0.987097 -0.00306972 0)
(0.989486 -0.00264153 0)
(0.991542 -0.00227023 0)
(0.993309 -0.00194904 0)
(0.994826 -0.00167179 0)
(0.996127 -0.00143285 0)
(0.997243 -0.00122714 0)
(0.998198 -0.00105024 0)
(0.999016 -0.000898293 0)
(0.999715 -0.000767923 0)
(1.00031 -0.000656157 0)
(1.00082 -0.000560388 0)
(1.00126 -0.000478354 0)
(1.00163 -0.000408122 0)
(1.00195 -0.000348051 0)
(1.00222 -0.000296714 0)
(1.00245 -0.000252843 0)
(1.00265 -0.000215335 0)
(1.00282 -0.000183268 0)
(1.00296 -0.000155889 0)
(1.00308 -0.000132546 0)
(1.00318 -0.000112649 0)
(1.00327 -9.56743e-05 0)
(1.00334 -8.11934e-05 0)
(1.00341 -6.88598e-05 0)
(1.00346 -5.83741e-05 0)
(1.00351 -4.94585e-05 0)
(1.00355 -4.18638e-05 0)
(1.00358 -3.53879e-05 0)
(1.00361 -2.98752e-05 0)
(1.00363 -2.51969e-05 0)
(1.00365 -2.12342e-05 0)
(1.00366 -1.78786e-05 0)
(1.00368 -1.50414e-05 0)
(1.00369 -1.26535e-05 0)
(1.0037 -1.06519e-05 0)
(1.00371 -8.96844e-06 0)
(1.00372 -7.53322e-06 0)
(1.00372 -6.29131e-06 0)
(1.00373 -5.21597e-06 0)
(1.00373 -4.30404e-06 0)
(1.00373 -3.55533e-06 0)
(1.00374 -2.95186e-06 0)
(1.00374 -2.45393e-06 0)
(1.00374 -2.01625e-06 0)
(1.00374 -1.61039e-06 0)
(1.00374 -1.2332e-06 0)
(1.00374 -8.93201e-07 0)
(1.00375 -5.87764e-07 0)
(1.00375 -2.92424e-07 0)
(1.00375 3.06434e-08 0)
(1.00375 4.18858e-07 0)
(1.00375 9.06155e-07 0)
(1.00374 1.53005e-06 0)
(1.00374 2.33917e-06 0)
(1.00374 3.40124e-06 0)
(1.00374 4.81951e-06 0)
(1.00373 6.75331e-06 0)
(1.00373 9.42856e-06 0)
(1.00372 1.31461e-05 0)
(1.00371 1.83276e-05 0)
(1.00369 2.56084e-05 0)
(1.00366 3.59396e-05 0)
(1.00363 5.07433e-05 0)
(1.00358 7.22504e-05 0)
(1.00352 0.000104068 0)
(1.00342 0.00015221 0)
(1.00329 0.000227283 0)
(1.00309 0.000348923 0)
(1.00279 0.000555272 0)
(1.00234 0.000924232 0)
(1.00163 0.00162154 0)
(1.00493 0.00301133 0)
(0.993275 0.00771672 0)
(0.998339 0.0175396 0)
(1.00622 0.0157475 0)
(1.12242 0.238835 0)
(1.01878 0.253199 0)
(1.01965 0.154525 0)
(0.999185 0.0803089 0)
(0.97702 0.0334631 0)
(0.963353 0.00505668 0)
(0.957366 -0.0116437 0)
(0.957027 -0.0209847 0)
(0.96047 -0.0257039 0)
(0.966236 -0.0275251 0)
(0.97327 -0.0275465 0)
(0.980839 -0.0264772 0)
(0.988456 -0.0247808 0)
(0.99581 -0.0227615 0)
(1.00271 -0.0206184 0)
(1.00907 -0.0184794 0)
(1.01483 -0.0164246 0)
(1.02 -0.0145009 0)
(1.0246 -0.0127331 0)
(1.02866 -0.0111312 0)
(1.03222 -0.0096948 0)
(1.03533 -0.00841774 0)
(1.03804 -0.00729002 0)
(1.0404 -0.00629958 0)
(1.04243 -0.00543361 0)
(1.04419 -0.00467926 0)
(1.04571 -0.00402419 0)
(1.04701 -0.00345684 0)
(1.04814 -0.0029665 0)
(1.0491 -0.00254343 0)
(1.04993 -0.00217894 0)
(1.05063 -0.00186538 0)
(1.05124 -0.00159597 0)
(1.05176 -0.00136471 0)
(1.0522 -0.00116634 0)
(1.05258 -0.000996264 0)
(1.05291 -0.000850548 0)
(1.05319 -0.000725801 0)
(1.05342 -0.00061909 0)
(1.05362 -0.000527839 0)
(1.0538 -0.000449813 0)
(1.05394 -0.000383107 0)
(1.05407 -0.000326118 0)
(1.05417 -0.000277473 0)
(1.05426 -0.000235967 0)
(1.05434 -0.000200555 0)
(1.05441 -0.000170351 0)
(1.05446 -0.000144611 0)
(1.05451 -0.000122697 0)
(1.05455 -0.000104039 0)
(1.05458 -8.8138e-05 0)
(1.05461 -7.4581e-05 0)
(1.05464 -6.30361e-05 0)
(1.05466 -5.32293e-05 0)
(1.05467 -4.49175e-05 0)
(1.05469 -3.78801e-05 0)
(1.0547 -3.19252e-05 0)
(1.05471 -2.68929e-05 0)
(1.05472 -2.26458e-05 0)
(1.05473 -1.90569e-05 0)
(1.05473 -1.6008e-05 0)
(1.05474 -1.34012e-05 0)
(1.05474 -1.11708e-05 0)
(1.05475 -9.28029e-06 0)
(1.05475 -7.70438e-06 0)
(1.05475 -6.40674e-06 0)
(1.05475 -5.33125e-06 0)
(1.05476 -4.41342e-06 0)
(1.05476 -3.60268e-06 0)
(1.05476 -2.87595e-06 0)
(1.05476 -2.22915e-06 0)
(1.05476 -1.65362e-06 0)
(1.05476 -1.11928e-06 0)
(1.05476 -5.78379e-07 0)
(1.05476 1.95053e-08 0)
(1.05476 7.21171e-07 0)
(1.05476 1.5772e-06 0)
(1.05476 2.65266e-06 0)
(1.05476 4.03682e-06 0)
(1.05476 5.85864e-06 0)
(1.05475 8.30622e-06 0)
(1.05475 1.16437e-05 0)
(1.05475 1.62345e-05 0)
(1.05474 2.25856e-05 0)
(1.05473 3.14194e-05 0)
(1.05471 4.3786e-05 0)
(1.05469 6.12208e-05 0)
(1.05467 8.59733e-05 0)
(1.05463 0.000121446 0)
(1.05458 0.000172946 0)
(1.05451 0.000248894 0)
(1.05442 0.00036307 0)
(1.05429 0.000538734 0)
(1.05413 0.000816081 0)
(1.05393 0.00126652 0)
(1.05374 0.00202197 0)
(1.0583 0.00334832 0)
(1.05017 0.0058844 0)
(1.04675 0.0112666 0)
(1.08211 0.00973768 0)
(1.12813 0.190216 0)
(1.02737 0.238818 0)
(1.05462 0.167991 0)
(1.05425 0.100031 0)
(1.04124 0.050284 0)
(1.02957 0.0163638 0)
(1.02128 -0.00565478 0)
(1.01644 -0.0192082 0)
(1.01444 -0.0269245 0)
(1.01455 -0.0307034 0)
(1.01609 -0.0318835 0)
(1.01852 -0.0313959 0)
(1.02145 -0.0298828 0)
(1.02457 -0.0277839 0)
(1.02771 -0.0253967 0)
(1.03074 -0.0229188 0)
(1.03358 -0.0204786 0)
(1.03618 -0.0181553 0)
(1.03854 -0.0159945 0)
(1.04066 -0.0140189 0)
(1.04253 -0.0122355 0)
(1.04419 -0.0106419 0)
(1.04564 -0.00922915 0)
(1.0469 -0.00798445 0)
(1.04801 -0.00689337 0)
(1.04896 -0.005941 0)
(1.04979 -0.00511265 0)
(1.0505 -0.00439424 0)
(1.05111 -0.00377262 0)
(1.05164 -0.00323578 0)
(1.05209 -0.00277297 0)
(1.05248 -0.00237461 0)
(1.05282 -0.00203218 0)
(1.0531 -0.00173808 0)
(1.05335 -0.00148568 0)
(1.05356 -0.00126924 0)
(1.05374 -0.00108378 0)
(1.05389 -0.000924992 0)
(1.05402 -0.000789106 0)
(1.05413 -0.00067285 0)
(1.05423 -0.000573423 0)
(1.05431 -0.000488439 0)
(1.05438 -0.000415848 0)
(1.05444 -0.000353872 0)
(1.05449 -0.000300969 0)
(1.05453 -0.000255828 0)
(1.05457 -0.000217337 0)
(1.0546 -0.000184539 0)
(1.05462 -0.000156596 0)
(1.05464 -0.000132779 0)
(1.05466 -0.000112473 0)
(1.05468 -9.51718e-05 0)
(1.05469 -8.04567e-05 0)
(1.0547 -6.79655e-05 0)
(1.05471 -5.73755e-05 0)
(1.05472 -4.84035e-05 0)
(1.05473 -4.0809e-05 0)
(1.05473 -3.43874e-05 0)
(1.05474 -2.89571e-05 0)
(1.05474 -2.43535e-05 0)
(1.05475 -2.04342e-05 0)
(1.05475 -1.70907e-05 0)
(1.05475 -1.42497e-05 0)
(1.05475 -1.18604e-05 0)
(1.05476 -9.87267e-06 0)
(1.05476 -8.22258e-06 0)
(1.05476 -6.8345e-06 0)
(1.05476 -5.63902e-06 0)
(1.05476 -4.59061e-06 0)
(1.05476 -3.66827e-06 0)
(1.05476 -2.85695e-06 0)
(1.05476 -2.12652e-06 0)
(1.05476 -1.42779e-06 0)
(1.05476 -7.05139e-07 0)
(1.05476 9.35247e-08 0)
(1.05476 1.02224e-06 0)
(1.05476 2.14917e-06 0)
(1.05476 3.56394e-06 0)
(1.05476 5.38705e-06 0)
(1.05476 7.79117e-06 0)
(1.05476 1.10228e-05 0)
(1.05476 1.54173e-05 0)
(1.05475 2.14372e-05 0)
(1.05475 2.97425e-05 0)
(1.05474 4.12635e-05 0)
(1.05473 5.72979e-05 0)
(1.05472 7.96959e-05 0)
(1.0547 0.000111113 0)
(1.05468 0.000155401 0)
(1.05465 0.000218286 0)
(1.05462 0.000308302 0)
(1.05458 0.000438225 0)
(1.05453 0.000627435 0)
(1.0545 0.000905051 0)
(1.05451 0.00131406 0)
(1.05464 0.00191497 0)
(1.05966 0.00277972 0)
(1.05174 0.0039062 0)
(1.04589 0.00478272 0)
(1.07576 0.00364067 0)
(1.1273 0.152767 0)
(1.02637 0.209781 0)
(1.06855 0.160761 0)
(1.08359 0.10483 0)
(1.0811 0.0592114 0)
(1.07513 0.0252125 0)
(1.06862 0.00139991 0)
(1.06293 -0.0143375 0)
(1.05848 -0.0240315 0)
(1.05525 -0.0293786 0)
(1.05308 -0.0317008 0)
(1.05172 -0.0319879 0)
(1.05096 -0.0309613 0)
(1.05063 -0.0291354 0)
(1.05058 -0.0268703 0)
(1.05072 -0.0244125 0)
(1.05096 -0.0219262 0)
(1.05127 -0.0195169 0)
(1.0516 -0.0172484 0)
(1.05193 -0.0151558 0)
(1.05225 -0.0132545 0)
(1.05255 -0.0115469 0)
(1.05283 -0.0100271 0)
(1.05308 -0.00868404 0)
(1.0533 -0.00750397 0)
(1.0535 -0.00647198 0)
(1.05367 -0.00557297 0)
(1.05382 -0.00479227 0)
(1.05395 -0.00411601 0)
(1.05407 -0.00353152 0)
(1.05417 -0.00302732 0)
(1.05425 -0.00259311 0)
(1.05433 -0.00221965 0)
(1.05439 -0.00189874 0)
(1.05444 -0.00162325 0)
(1.05449 -0.00138698 0)
(1.05453 -0.00118451 0)
(1.05456 -0.0010111 0)
(1.05459 -0.000862645 0)
(1.05462 -0.000735608 0)
(1.05464 -0.000626968 0)
(1.05466 -0.000534119 0)
(1.05468 -0.000454798 0)
(1.05469 -0.000387055 0)
(1.0547 -0.000329221 0)
(1.05471 -0.000279877 0)
(1.05472 -0.000237802 0)
(1.05473 -0.000201936 0)
(1.05473 -0.000171357 0)
(1.05474 -0.000145285 0)
(1.05474 -0.000123065 0)
(1.05474 -0.000104153 0)
(1.05475 -8.80785e-05 0)
(1.05475 -7.44297e-05 0)
(1.05475 -6.28477e-05 0)
(1.05475 -5.30271e-05 0)
(1.05476 -4.47099e-05 0)
(1.05476 -3.76726e-05 0)
(1.05476 -3.17145e-05 0)
(1.05476 -2.66579e-05 0)
(1.05476 -2.23555e-05 0)
(1.05476 -1.86966e-05 0)
(1.05476 -1.56011e-05 0)
(1.05476 -1.30037e-05 0)
(1.05476 -1.08368e-05 0)
(1.05476 -9.02393e-06 0)
(1.05476 -7.48808e-06 0)
(1.05476 -6.16669e-06 0)
(1.05476 -5.01986e-06 0)
(1.05476 -4.02148e-06 0)
(1.05476 -3.14082e-06 0)
(1.05476 -2.33253e-06 0)
(1.05476 -1.54297e-06 0)
(1.05476 -7.20695e-07 0)
(1.05476 1.85445e-07 0)
(1.05476 1.23803e-06 0)
(1.05476 2.51819e-06 0)
(1.05476 4.12701e-06 0)
(1.05476 6.19679e-06 0)
(1.05476 8.91762e-06 0)
(1.05476 1.25643e-05 0)
(1.05476 1.75165e-05 0)
(1.05476 2.42959e-05 0)
(1.05476 3.36309e-05 0)
(1.05476 4.65208e-05 0)
(1.05475 6.43205e-05 0)
(1.05475 8.89213e-05 0)
(1.05474 0.000122976 0)
(1.05474 0.000170155 0)
(1.05473 0.000235597 0)
(1.05473 0.000326408 0)
(1.05474 0.000452201 0)
(1.05476 0.000625724 0)
(1.05482 0.000862818 0)
(1.05494 0.00118044 0)
(1.05521 0.00158896 0)
(1.06029 0.00206701 0)
(1.05211 0.00247879 0)
(1.04505 0.0024324 0)
(1.07269 0.00167219 0)
(1.12586 0.119982 0)
(1.02348 0.173855 0)
(1.07342 0.140869 0)
(1.09876 0.097781 0)
(1.10512 0.0596854 0)
(1.10539 0.029297 0)
(1.10235 0.0067283 0)
(1.09782 -0.00901406 0)
(1.09287 -0.0192719 0)
(1.08805 -0.025361 0)
(1.0836 -0.0284157 0)
(1.07964 -0.0293479 0)
(1.07616 -0.0288569 0)
(1.07314 -0.0274618 0)
(1.07052 -0.0255372 0)
(1.06827 -0.0233464 0)
(1.06634 -0.0210691 0)
(1.06468 -0.0188235 0)
(1.06325 -0.0166839 0)
(1.06203 -0.0146934 0)
(1.06098 -0.0128737 0)
(1.06008 -0.0112317 0)
(1.05931 -0.0097649 0)
(1.05865 -0.00846503 0)
(1.05808 -0.00732044 0)
(1.0576 -0.00631777 0)
(1.05719 -0.00544309 0)
(1.05683 -0.00468263 0)
(1.05653 -0.00402331 0)
(1.05627 -0.00345308 0)
(1.05605 -0.00296092 0)
(1.05586 -0.00253682 0)
(1.0557 -0.00217184 0)
(1.05556 -0.0018581 0)
(1.05544 -0.00158872 0)
(1.05534 -0.00135766 0)
(1.05525 -0.00115961 0)
(1.05518 -0.000989937 0)
(1.05512 -0.000844649 0)
(1.05506 -0.000720329 0)
(1.05502 -0.000614019 0)
(1.05498 -0.000523147 0)
(1.05495 -0.000445495 0)
(1.05492 -0.000379164 0)
(1.0549 -0.000322538 0)
(1.05488 -0.000274225 0)
(1.05486 -0.000233016 0)
(1.05484 -0.000197869 0)
(1.05483 -0.000167895 0)
(1.05482 -0.000142346 0)
(1.05481 -0.000120593 0)
(1.0548 -0.00010209 0)
(1.0548 -8.63617e-05 0)
(1.05479 -7.29949e-05 0)
(1.05479 -6.164e-05 0)
(1.05478 -5.20048e-05 0)
(1.05478 -4.38417e-05 0)
(1.05478 -3.69322e-05 0)
(1.05478 -3.10805e-05 0)
(1.05477 -2.61156e-05 0)
(1.05477 -2.1898e-05 0)
(1.05477 -1.83199e-05 0)
(1.05477 -1.52976e-05 0)
(1.05477 -1.27591e-05 0)
(1.05477 -1.06331e-05 0)
(1.05477 -8.8469e-06 0)
(1.05477 -7.33319e-06 0)
(1.05477 -6.03864e-06 0)
(1.05477 -4.92429e-06 0)
(1.05477 -3.95533e-06 0)
(1.05477 -3.09064e-06 0)
(1.05477 -2.28297e-06 0)
(1.05477 -1.48614e-06 0)
(1.05477 -6.55044e-07 0)
(1.05477 2.63806e-07 0)
(1.05477 1.33758e-06 0)
(1.05477 2.64393e-06 0)
(1.05477 4.27518e-06 0)
(1.05477 6.35997e-06 0)
(1.05477 9.09131e-06 0)
(1.05477 1.2751e-05 0)
(1.05477 1.7731e-05 0)
(1.05477 2.45545e-05 0)
(1.05477 3.39177e-05 0)
(1.05477 4.6761e-05 0)
(1.05477 6.43527e-05 0)
(1.05478 8.84202e-05 0)
(1.05478 0.000121319 0)
(1.05479 0.000166147 0)
(1.05481 0.000226917 0)
(1.05484 0.000308766 0)
(1.05488 0.00041786 0)
(1.05494 0.000560895 0)
(1.05506 0.000743654 0)
(1.05524 0.000966979 0)
(1.05553 0.00121787 0)
(1.06055 0.00145027 0)
(1.05208 0.00154531 0)
(1.04442 0.00130277 0)
(1.07114 0.00081694 0)
(1.12475 0.09062 0)
(1.0208 0.135668 0)
(1.07457 0.113994 0)
(1.10633 0.0825754 0)
(1.11923 0.0531201 0)
(1.1249 0.0284042 0)
(1.12552 0.00922061 0)
(1.12295 -0.00471159 0)
(1.11856 -0.0141664 0)
(1.11323 -0.02006 0)
(1.10757 -0.0232647 0)
(1.10194 -0.0245286 0)
(1.09656 -0.0244526 0)
(1.09156 -0.0234986 0)
(1.08699 -0.022009 0)
(1.08287 -0.0202297 0)
(1.0792 -0.0183318 0)
(1.07594 -0.0164303 0)
(1.07308 -0.0145991 0)
(1.07057 -0.0128826 0)
(1.06838 -0.0113049 0)
(1.06647 -0.00987532 0)
(1.06482 -0.0085943 0)
(1.0634 -0.00745634 0)
(1.06216 -0.00645245 0)
(1.0611 -0.00557172 0)
(1.06019 -0.00480245 0)
(1.0594 -0.00413296 0)
(1.05873 -0.00355211 0)
(1.05815 -0.00304948 0)
(1.05766 -0.00261544 0)
(1.05723 -0.00224123 0)
(1.05687 -0.00191906 0)
(1.05656 -0.00164206 0)
(1.05629 -0.00140419 0)
(1.05607 -0.00120011 0)
(1.05587 -0.00102512 0)
(1.05571 -0.000875171 0)
(1.05556 -0.000746777 0)
(1.05544 -0.000636921 0)
(1.05534 -0.000542972 0)
(1.05525 -0.000462647 0)
(1.05518 -0.000393995 0)
(1.05512 -0.000335354 0)
(1.05506 -0.000285294 0)
(1.05502 -0.000242574 0)
(1.05498 -0.000206118 0)
(1.05495 -0.000175014 0)
(1.05492 -0.000148494 0)
(1.05489 -0.000125908 0)
(1.05487 -0.000106693 0)
(1.05486 -9.03512e-05 0)
(1.05484 -7.64494e-05 0)
(1.05483 -6.46208e-05 0)
(1.05482 -5.45623e-05 0)
(1.05481 -4.6023e-05 0)
(1.0548 -3.87876e-05 0)
(1.0548 -3.26644e-05 0)
(1.05479 -2.74813e-05 0)
(1.05479 -2.30889e-05 0)
(1.05478 -1.93628e-05 0)
(1.05478 -1.62036e-05 0)
(1.05478 -1.35327e-05 0)
(1.05478 -1.12843e-05 0)
(1.05477 -9.39771e-06 0)
(1.05477 -7.81398e-06 0)
(1.05477 -6.47781e-06 0)
(1.05477 -5.34195e-06 0)
(1.05477 -4.36645e-06 0)
(1.05477 -3.51303e-06 0)
(1.05477 -2.74182e-06 0)
(1.05477 -2.01375e-06 0)
(1.05477 -1.29125e-06 0)
(1.05477 -5.31549e-07 0)
(1.05477 3.17839e-07 0)
(1.05477 1.31211e-06 0)
(1.05477 2.50508e-06 0)
(1.05477 3.96974e-06 0)
(1.05477 5.83143e-06 0)
(1.05477 8.28291e-06 0)
(1.05477 1.1588e-05 0)
(1.05477 1.60975e-05 0)
(1.05478 2.22658e-05 0)
(1.05478 3.06826e-05 0)
(1.05479 4.21547e-05 0)
(1.05479 5.77724e-05 0)
(1.05481 7.89574e-05 0)
(1.05482 0.000107582 0)
(1.05484 0.000145996 0)
(1.05488 0.000197005 0)
(1.05492 0.000263935 0)
(1.05499 0.000350193 0)
(1.05508 0.000458338 0)
(1.05522 0.000588383 0)
(1.05542 0.000734181 0)
(1.05569 0.000877118 0)
(1.06062 0.000976222 0)
(1.05195 0.00095546 0)
(1.04399 0.000728257 0)
(1.0703 0.000425933 0)
(1.12402 0.063437 0)
(1.01879 0.096872 0)
(1.07439 0.08331 0)
(1.10996 0.0620837 0)
(1.12727 0.0413564 0)
(1.137 0.0233277 0)
(1.14071 0.00888457 0)
(1.14011 -0.0019123 0)
(1.13663 -0.00945159 0)
(1.13138 -0.0143073 0)
(1.12516 -0.0170793 0)
(1.11855 -0.0183115 0)
(1.11194 -0.0184576 0)
(1.10557 -0.0178761 0)
(1.0996 -0.0168388 0)
(1.09412 -0.0155439 0)
(1.08915 -0.0141317 0)
(1.08469 -0.012698 0)
(1.08073 -0.0113051 0)
(1.07723 -0.0099915 0)
(1.07416 -0.00877862 0)
(1.07148 -0.00767602 0)
(1.06915 -0.00668555 0)
(1.06712 -0.00580406 0)
(1.06537 -0.0050253 0)
(1.06386 -0.00434125 0)
(1.06255 -0.00374317 0)
(1.06143 -0.00322227 0)
(1.06047 -0.00277009 0)
(1.05964 -0.00237861 0)
(1.05893 -0.00204037 0)
(1.05832 -0.00174864 0)
(1.05779 -0.00149743 0)
(1.05735 -0.00128144 0)
(1.05697 -0.00109594 0)
(1.05664 -0.000936743 0)
(1.05636 -0.000800201 0)
(1.05612 -0.00068319 0)
(1.05592 -0.000583006 0)
(1.05575 -0.000497281 0)
(1.0556 -0.00042395 0)
(1.05547 -0.00036124 0)
(1.05536 -0.000307645 0)
(1.05527 -0.00026187 0)
(1.0552 -0.00022279 0)
(1.05513 -0.000189425 0)
(1.05507 -0.00016094 0)
(1.05503 -0.000136638 0)
(1.05499 -0.000115934 0)
(1.05495 -9.83196e-05 0)
(1.05492 -8.33405e-05 0)
(1.0549 -7.05953e-05 0)
(1.05488 -5.974e-05 0)
(1.05486 -5.04914e-05 0)
(1.05484 -4.26199e-05 0)
(1.05483 -3.59355e-05 0)
(1.05482 -3.02735e-05 0)
(1.05481 -2.54862e-05 0)
(1.0548 -2.14397e-05 0)
(1.0548 -1.80147e-05 0)
(1.05479 -1.51088e-05 0)
(1.05479 -1.26403e-05 0)
(1.05478 -1.05481e-05 0)
(1.05478 -8.78569e-06 0)
(1.05478 -7.31127e-06 0)
(1.05478 -6.0804e-06 0)
(1.05477 -5.04741e-06 0)
(1.05477 -4.17096e-06 0)
(1.05477 -3.41601e-06 0)
(1.05477 -2.751e-06 0)
(1.05477 -2.14504e-06 0)
(1.05477 -1.56701e-06 0)
(1.05477 -9.83516e-07 0)
(1.05477 -3.57562e-07 0)
(1.05477 3.45599e-07 0)
(1.05477 1.15156e-06 0)
(1.05477 2.08837e-06 0)
(1.05477 3.21938e-06 0)
(1.05477 4.66726e-06 0)
(1.05477 6.60409e-06 0)
(1.05478 9.23484e-06 0)
(1.05478 1.28162e-05 0)
(1.05478 1.76928e-05 0)
(1.05479 2.43249e-05 0)
(1.0548 3.33385e-05 0)
(1.05481 4.55584e-05 0)
(1.05483 6.20086e-05 0)
(1.05485 8.39982e-05 0)
(1.05488 0.000113135 0)
(1.05493 0.000151224 0)
(1.05499 0.000200171 0)
(1.05507 0.000261546 0)
(1.05518 0.000335733 0)
(1.05533 0.000420482 0)
(1.05553 0.000508584 0)
(1.05577 0.000584303 0)
(1.06062 0.000619534 0)
(1.05183 0.000572156 0)
(1.04371 0.000408831 0)
(1.06983 0.000228101 0)
(1.12359 0.0375849 0)
(1.0175 0.0580506 0)
(1.07392 0.0506189 0)
(1.11159 0.0383813 0)
(1.13157 0.0261214 0)
(1.14395 0.015209 0)
(1.14982 0.00628599 0)
(1.15073 -0.000510086 0)
(1.14808 -0.00534314 0)
(1.14308 -0.00851971 0)
(1.13666 -0.0103857 0)
(1.12953 -0.0112675 0)
(1.12219 -0.0114455 0)
(1.11498 -0.0111452 0)
(1.10812 -0.0105401 0)
(1.10175 -0.00975854 0)
(1.09592 -0.00889208 0)
(1.09066 -0.00800391 0)
(1.08596 -0.00713572 0)
(1.0818 -0.00631341 0)
(1.07814 -0.00555171 0)
(1.07493 -0.00485767 0)
(1.07213 -0.00423318 0)
(1.06969 -0.00367666 0)
(1.06758 -0.00318445 0)
(1.06576 -0.00275172 0)
(1.06418 -0.00237317 0)
(1.06283 -0.00204335 0)
(1.06166 -0.00175695 0)
(1.06066 -0.00150888 0)
(1.0598 -0.00129445 0)
(1.05907 -0.00110946 0)
(1.05843 -0.000950158 0)
(1.05789 -0.000813174 0)
(1.05743 -0.0006955 0)
(1.05704 -0.000594486 0)
(1.0567 -0.000507846 0)
(1.05641 -0.000433611 0)
(1.05616 -0.000370054 0)
(1.05595 -0.000315657 0)
(1.05578 -0.00026911 0)
(1.05562 -0.000229301 0)
(1.05549 -0.000195284 0)
(1.05538 -0.000166232 0)
(1.05529 -0.00014142 0)
(1.05521 -0.000120222 0)
(1.05514 -0.00010212 0)
(1.05508 -8.66876e-05 0)
(1.05503 -7.35575e-05 0)
(1.05499 -6.23998e-05 0)
(1.05496 -5.29133e-05 0)
(1.05493 -4.48329e-05 0)
(1.0549 -3.79385e-05 0)
(1.05488 -3.20543e-05 0)
(1.05486 -2.70407e-05 0)
(1.05485 -2.27829e-05 0)
(1.05483 -1.9181e-05 0)
(1.05482 -1.61429e-05 0)
(1.05481 -1.35808e-05 0)
(1.0548 -1.14121e-05 0)
(1.0548 -9.56508e-06 0)
(1.05479 -7.98772e-06 0)
(1.05479 -6.64835e-06 0)
(1.05478 -5.52607e-06 0)
(1.05478 -4.59683e-06 0)
(1.05478 -3.8278e-06 0)
(1.05478 -3.18377e-06 0)
(1.05477 -2.63615e-06 0)
(1.05477 -2.16383e-06 0)
(1.05477 -1.74674e-06 0)
(1.05477 -1.36115e-06 0)
(1.05477 -9.8051e-07 0)
(1.05477 -5.80114e-07 0)
(1.05477 -1.44296e-07 0)
(1.05477 3.29231e-07 0)
(1.05477 8.40474e-07 0)
(1.05477 1.4128e-06 0)
(1.05477 2.10886e-06 0)
(1.05477 3.02239e-06 0)
(1.05477 4.26153e-06 0)
(1.05478 5.94432e-06 0)
(1.05478 8.22292e-06 0)
(1.05479 1.13266e-05 0)
(1.0548 1.55678e-05 0)
(1.05481 2.13267e-05 0)
(1.05482 2.90887e-05 0)
(1.05484 3.94735e-05 0)
(1.05487 5.32425e-05 0)
(1.05491 7.13378e-05 0)
(1.05496 9.4773e-05 0)
(1.05503 0.000124421 0)
(1.05512 0.000160848 0)
(1.05524 0.000203756 0)
(1.0554 0.000251008 0)
(1.05558 0.000297377 0)
(1.0558 0.000332969 0)
(1.06061 0.000342202 0)
(1.05174 0.00030487 0)
(1.04355 0.000209703 0)
(1.06957 0.000113752 0)
(1.12338 0.0124522 0)
(1.01687 0.019333 0)
(1.0736 0.0169672 0)
(1.1122 0.0129714 0)
(1.13343 0.00891857 0)
(1.1471 0.0052705 0)
(1.15408 0.00225737 0)
(1.15579 -5.87106e-05 0)
(1.15362 -0.0017206 0)
(1.14881 -0.00282369 0)
(1.14234 -0.00348031 0)
(1.13499 -0.00379898 0)
(1.12731 -0.00387427 0)
(1.1197 -0.00378311 0)
(1.11241 -0.00358491 0)
(1.1056 -0.0033241 0)
(1.09935 -0.00303248 0)
(1.09369 -0.00273201 0)
(1.08862 -0.00243731 0)
(1.08412 -0.00215754 0)
(1.08016 -0.001898 0)
(1.07668 -0.0016613 0)
(1.07364 -0.00144814 0)
(1.071 -0.00125803 0)
(1.06871 -0.00108975 0)
(1.06673 -0.000941733 0)
(1.06502 -0.000812226 0)
(1.06354 -0.000699402 0)
(1.06227 -0.000601428 0)
(1.06118 -0.000516552 0)
(1.06025 -0.000443173 0)
(1.05945 -0.000379866 0)
(1.05876 -0.000325353 0)
(1.05817 -0.000278471 0)
(1.05767 -0.000238176 0)
(1.05724 -0.000203571 0)
(1.05687 -0.000173896 0)
(1.05656 -0.000148484 0)
(1.05629 -0.000126731 0)
(1.05606 -0.000108104 0)
(1.05587 -9.21548e-05 0)
(1.0557 -7.85141e-05 0)
(1.05556 -6.68631e-05 0)
(1.05544 -5.6911e-05 0)
(1.05533 -4.83984e-05 0)
(1.05525 -4.11126e-05 0)
(1.05517 -3.48901e-05 0)
(1.05511 -2.95994e-05 0)
(1.05506 -2.51186e-05 0)
(1.05501 -2.13255e-05 0)
(1.05497 -1.81024e-05 0)
(1.05494 -1.53481e-05 0)
(1.05491 -1.29841e-05 0)
(1.05489 -1.09537e-05 0)
(1.05487 -9.21666e-06 0)
(1.05485 -7.74247e-06 0)
(1.05484 -6.50366e-06 0)
(1.05483 -5.46933e-06 0)
(1.05482 -4.60192e-06 0)
(1.05481 -3.86177e-06 0)
(1.0548 -3.21852e-06 0)
(1.0548 -2.65997e-06 0)
(1.05479 -2.18841e-06 0)
(1.05479 -1.80557e-06 0)
(1.05478 -1.50056e-06 0)
(1.05478 -1.25286e-06 0)
(1.05478 -1.04532e-06 0)
(1.05478 -8.70366e-07 0)
(1.05477 -7.22483e-07 0)
(1.05477 -5.88491e-07 0)
(1.05477 -4.49026e-07 0)
(1.05477 -2.89466e-07 0)
(1.05477 -1.09377e-07 0)
(1.05477 7.61909e-08 0)
(1.05477 2.47394e-07 0)
(1.05477 4.01854e-07 0)
(1.05477 5.67872e-07 0)
(1.05477 7.85312e-07 0)
(1.05477 1.08025e-06 0)
(1.05478 1.47799e-06 0)
(1.05478 2.02553e-06 0)
(1.05478 2.78617e-06 0)
(1.05479 3.84835e-06 0)
(1.0548 5.32364e-06 0)
(1.05481 7.30809e-06 0)
(1.05483 9.94994e-06 0)
(1.05485 1.34961e-05 0)
(1.05488 1.81784e-05 0)
(1.05493 2.43001e-05 0)
(1.05498 3.22042e-05 0)
(1.05506 4.21128e-05 0)
(1.05515 5.41668e-05 0)
(1.05527 6.8178e-05 0)
(1.05542 8.33136e-05 0)
(1.05561 9.76916e-05 0)
(1.05582 0.000107995 0)
(1.0606 0.000109321 0)
(1.05169 9.57742e-05 0)
(1.04347 6.47259e-05 0)
(1.06946 3.46197e-05 0)
(1.12338 -0.0124527 0)
(1.01687 -0.0193339 0)
(1.0736 -0.016968 0)
(1.1122 -0.0129722 0)
(1.13343 -0.00891931 0)
(1.1471 -0.00527098 0)
(1.15408 -0.00225766 0)
(1.15579 5.85509e-05 0)
(1.15362 0.00172054 0)
(1.14881 0.00282365 0)
(1.14234 0.00348028 0)
(1.13499 0.00379917 0)
(1.12731 0.00387466 0)
(1.1197 0.00378358 0)
(1.11241 0.00358553 0)
(1.1056 0.00332476 0)
(1.09935 0.00303313 0)
(1.09369 0.00273271 0)
(1.08862 0.00243809 0)
(1.08412 0.0021584 0)
(1.08016 0.00189891 0)
(1.07668 0.00166217 0)
(1.07364 0.00144896 0)
(1.071 0.00125882 0)
(1.06871 0.00109056 0)
(1.06673 0.00094257 0)
(1.06502 0.000813043 0)
(1.06354 0.000700138 0)
(1.06227 0.000602056 0)
(1.06118 0.000517092 0)
(1.06025 0.000443652 0)
(1.05945 0.000380281 0)
(1.05876 0.000325683 0)
(1.05817 0.000278727 0)
(1.05767 0.000238404 0)
(1.05724 0.000203804 0)
(1.05687 0.000174118 0)
(1.05656 0.000148661 0)
(1.05629 0.000126858 0)
(1.05606 0.000108211 0)
(1.05587 9.22701e-05 0)
(1.0557 7.86396e-05 0)
(1.05556 6.69859e-05 0)
(1.05544 5.70362e-05 0)
(1.05533 4.85568e-05 0)
(1.05525 4.13336e-05 0)
(1.05517 3.51687e-05 0)
(1.05511 2.9892e-05 0)
(1.05506 2.53691e-05 0)
(1.05501 2.14986e-05 0)
(1.05497 1.82002e-05 0)
(1.05494 1.54032e-05 0)
(1.05491 1.30406e-05 0)
(1.05489 1.10478e-05 0)
(1.05487 9.36276e-06 0)
(1.05485 7.92913e-06 0)
(1.05484 6.70108e-06 0)
(1.05483 5.64847e-06 0)
(1.05482 4.75599e-06 0)
(1.05481 4.01314e-06 0)
(1.0548 3.40138e-06 0)
(1.0548 2.89048e-06 0)
(1.05479 2.4493e-06 0)
(1.05479 2.06046e-06 0)
(1.05478 1.72224e-06 0)
(1.05478 1.43523e-06 0)
(1.05478 1.19076e-06 0)
(1.05478 9.76132e-07 0)
(1.05477 7.88795e-07 0)
(1.05477 6.38146e-07 0)
(1.05477 5.29702e-07 0)
(1.05477 4.50203e-07 0)
(1.05477 3.7062e-07 0)
(1.05477 2.62346e-07 0)
(1.05477 1.10858e-07 0)
(1.05477 -8.24747e-08 0)
(1.05477 -3.13544e-07 0)
(1.05477 -5.97939e-07 0)
(1.05477 -9.7471e-07 0)
(1.05478 -1.47419e-06 0)
(1.05478 -2.1063e-06 0)
(1.05478 -2.91276e-06 0)
(1.05479 -3.98713e-06 0)
(1.0548 -5.4385e-06 0)
(1.05481 -7.4129e-06 0)
(1.05483 -1.00794e-05 0)
(1.05485 -1.36175e-05 0)
(1.05488 -1.83135e-05 0)
(1.05493 -2.44748e-05 0)
(1.05498 -3.23606e-05 0)
(1.05506 -4.22451e-05 0)
(1.05515 -5.42769e-05 0)
(1.05527 -6.8281e-05 0)
(1.05542 -8.3406e-05 0)
(1.05561 -9.77604e-05 0)
(1.05582 -0.000108034 0)
(1.0606 -0.000109365 0)
(1.05169 -9.57922e-05 0)
(1.04347 -6.47311e-05 0)
(1.06946 -3.46415e-05 0)
(1.12359 -0.0375853 0)
(1.0175 -0.0580515 0)
(1.07392 -0.0506198 0)
(1.11159 -0.038382 0)
(1.13157 -0.0261218 0)
(1.14395 -0.0152093 0)
(1.14982 -0.00628627 0)
(1.15073 0.000509912 0)
(1.14808 0.00534315 0)
(1.14308 0.00851995 0)
(1.13666 0.010386 0)
(1.12953 0.0112679 0)
(1.12219 0.011446 0)
(1.11498 0.0111457 0)
(1.10812 0.0105407 0)
(1.10175 0.00975917 0)
(1.09592 0.00889282 0)
(1.09066 0.00800471 0)
(1.08596 0.0071365 0)
(1.0818 0.00631415 0)
(1.07814 0.00555246 0)
(1.07493 0.00485849 0)
(1.07213 0.00423405 0)
(1.06969 0.00367753 0)
(1.06758 0.00318528 0)
(1.06576 0.0027525 0)
(1.06418 0.0023739 0)
(1.06283 0.002044 0)
(1.06166 0.00175749 0)
(1.06066 0.00150934 0)
(1.0598 0.00129487 0)
(1.05907 0.00110987 0)
(1.05843 0.000950529 0)
(1.05789 0.000813496 0)
(1.05743 0.00069578 0)
(1.05704 0.00059474 0)
(1.0567 0.000508072 0)
(1.05641 0.00043379 0)
(1.05616 0.000370184 0)
(1.05595 0.000315761 0)
(1.05578 0.000269216 0)
(1.05562 0.000229417 0)
(1.05549 0.000195403 0)
(1.05538 0.000166354 0)
(1.05529 0.000141563 0)
(1.05521 0.000120412 0)
(1.05514 0.000102362 0)
(1.05508 8.69528e-05 0)
(1.05503 7.38004e-05 0)
(1.05499 6.25837e-05 0)
(1.05496 5.30307e-05 0)
(1.05493 4.49067e-05 0)
(1.0549 3.80069e-05 0)
(1.05488 3.21505e-05 0)
(1.05486 2.71783e-05 0)
(1.05485 2.29522e-05 0)
(1.05483 1.93588e-05 0)
(1.05482 1.63097e-05 0)
(1.05481 1.37345e-05 0)
(1.0548 1.15688e-05 0)
(1.0548 9.74542e-06 0)
(1.05479 8.19933e-06 0)
(1.05479 6.88025e-06 0)
(1.05478 5.758e-06 0)
(1.05478 4.8118e-06 0)
(1.05478 4.01531e-06 0)
(1.05478 3.33676e-06 0)
(1.05477 2.7537e-06 0)
(1.05477 2.25954e-06 0)
(1.05477 1.84828e-06 0)
(1.05477 1.49481e-06 0)
(1.05477 1.15706e-06 0)
(1.05477 7.98418e-07 0)
(1.05477 4.03204e-07 0)
(1.05477 -3.38329e-08 0)
(1.05477 -5.33795e-07 0)
(1.05477 -1.14508e-06 0)
(1.05477 -1.92781e-06 0)
(1.05477 -2.94203e-06 0)
(1.05477 -4.26095e-06 0)
(1.05478 -5.98907e-06 0)
(1.05478 -8.29263e-06 0)
(1.05479 -1.14253e-05 0)
(1.0548 -1.56897e-05 0)
(1.05481 -2.14441e-05 0)
(1.05482 -2.91972e-05 0)
(1.05484 -3.95924e-05 0)
(1.05487 -5.33771e-05 0)
(1.05491 -7.14754e-05 0)
(1.05496 -9.48852e-05 0)
(1.05503 -0.000124539 0)
(1.05512 -0.000160984 0)
(1.05524 -0.000203875 0)
(1.0554 -0.000251098 0)
(1.05558 -0.000297473 0)
(1.0558 -0.000333065 0)
(1.06061 -0.000342288 0)
(1.05174 -0.000304964 0)
(1.04355 -0.000209751 0)
(1.06957 -0.000113752 0)
(1.12402 -0.0634375 0)
(1.01879 -0.0968728 0)
(1.07439 -0.0833107 0)
(1.10996 -0.0620842 0)
(1.12727 -0.0413569 0)
(1.137 -0.0233282 0)
(1.14071 -0.00888482 0)
(1.14011 0.00191223 0)
(1.13663 0.00945164 0)
(1.13138 0.0143074 0)
(1.12516 0.0170796 0)